LAMMPS data file via write_data, version 29 Oct 2020, timestep = 32000000

10752 atoms
2 atom types
10752 bonds
3 bond types
10752 angles
3 angle types
10752 dihedrals
3 dihedral types

-1.4019591925125496e-01 3.1008115919238300e+01 xlo xhi
-1.2113307625790526e-01 2.6791853076229280e+01 ylo yhi
 2.6008329834220561e+01 2.5699103016500959e+02 zlo zhi

Masses

1 14
2 15

Pair Coeffs # lj/cut/omp

1 0.0914 3.95
2 0.1947 3.75

Bond Coeffs # harmonic/omp

1 449.5 1.53
2 449.5 1.53
3 449.5 1.53

Angle Coeffs # harmonic/omp

1 62.0967 114
2 62.0967 114
3 62.0967 114

Dihedral Coeffs # opls/omp

1 1.411 -0.271 3.145 0
2 1.411 -0.271 3.145 0
3 1.411 -0.271 3.145 0

Atoms # molecular

1            1            1      9.02041      23.0263      26.6929
2            1            1      9.35295      23.9869      27.7842
3            1            1      8.27441      24.0289      28.7819
4            1            1      8.48622      25.1582      29.8619
5            1            1      7.40175      25.1339      30.9902
6            1            1      7.41498      26.3819       31.821
7            1            1      6.33316      26.3643      32.8974
8            1            1      6.71541      25.3045      34.0226
9            1            1      5.67803      25.1667      35.1074
10            1            1      6.19592      24.1479      36.1757
11            1            1      5.35064      24.2443      37.4718
12            1            1      5.51151      22.8967      38.3055
13            1            1      4.36625      22.8155      39.3301
14            1            1      4.49058      21.5963       40.256
15            1            1      3.24436      21.5677      41.1377
16            1            1      3.25832      22.8882      42.0558
17            1            1      2.31495      22.9077      43.2575
18            1            1      2.65767       23.918      44.3797
19            1            1      1.51093      23.7952       45.448
20            1            1      1.54894      24.9029      46.4359
21            1            1     0.443482      24.8592      47.4414
22            1            1     0.445697       25.969      48.4227
23            1            1      30.5054      25.8752      49.5093
24            1            1      30.8304      24.6763      50.4708
25            1            1      29.7601      24.7092      51.6868
26            1            1      30.1159      23.6424      52.7533
27            1            1      29.1983      23.7491       53.955
28            1            1      29.1889      22.5157      54.7828
29            1            1      28.0657      22.6871      55.8907
30            1            1      28.2816      21.6826      57.0175
31            1            1      26.9677      21.5192      57.8326
32            1            1      27.1188      20.3872      58.7672
33            1            1      25.9866      20.6164      59.7785
34            1            1      26.3079      21.6218      60.8913
35            1            1      25.1579       21.913       61.875
36            1            1      25.4102      23.0161      62.8634
37            1            1      24.4455      23.3273      63.9076
38            1            1      24.7934       24.466      64.9528
39            1            1      23.7244       24.517      66.0571
40            1            1       24.142      25.4894      67.1575
41            1            1      23.0717      25.7367      68.1977
42            1            1      23.7259      26.5907      69.2843
43            1            1      22.5873     0.110125      70.2598
44            1            1      22.9308      1.02305      71.3912
45            1            1      23.7448     0.288321      72.3729
46            1            1      24.4566      1.25398      73.3116
47            1            1       25.397     0.481462      74.2899
48            1            1      25.9064      1.37148      75.4238
49            1            1      26.7866     0.636237      76.3836
50            1            1      27.1229      1.55955      77.5459
51            1            1      28.0262     0.794782       78.486
52            1            1       28.695      1.58626      79.6128
53            1            1      29.4629     0.662652      80.5871
54            1            1      30.1698      1.40253      81.7367
55            1            1      30.9626     0.416052      82.5718
56            1            1     0.312468      1.17957      83.7913
57            1            1       30.197      1.90903      84.3634
58            1            1      30.5621      2.66863      85.5818
59            1            1      29.3793      3.05663      86.5157
60            1            1      29.7434      3.66482      87.8659
61            1            1       28.694      4.26666      88.7496
62            1            1      29.2042      5.20683      89.8491
63            1            1      28.0948      5.55386      90.7539
64            1            1      28.4298      6.64252      91.8306
65            1            1      27.2448       6.7724      92.8043
66            1            1      27.4369      7.86233      93.8328
67            1            1      26.2607      7.89594      94.7838
68            1            1      26.4104      8.79287      95.9495
69            1            1      27.4762      8.12223      96.8278
70            1            1      27.9876      8.94118      98.0229
71            1            1      28.8132      8.12666      99.0252
72             1             1       29.2655       9.05762       100.226
73             1             1       30.0657       8.32162       101.286
74             1             1       30.4894       9.03207       102.475
75             1             1      0.135682       8.13431       103.447
76             1             1       1.00464       8.89274       104.361
77             1             1       1.82908       7.99129       105.208
78             1             1       2.41011       8.71429       106.372
79             1             1       3.33608       7.78745       107.212
80             1             1       4.12148       8.59988       108.222
81             1             1       4.81223       7.72222       109.269
82             1             1       5.65665       8.53975       110.291
83             1             1       6.20944       7.81559       111.493
84             1             1       5.20054       7.23286       112.471
85             1             1       5.66042       6.50088       113.748
86             1             1       4.50816       6.03918       114.564
87             1             1       5.08038       5.18306       115.718
88             1             1       4.09725       4.82447       116.834
89             1             1       4.58293       3.73032       117.811
90             1             1       3.46534       3.17165       118.626
91             1             1       4.14376       2.42142       119.682
92             1             1       3.11139       1.95254       120.708
93             1             1        3.6379        1.2149       121.888
94             1             1        4.4609       2.02581       122.834
95             1             1       4.94372       1.24446       124.062
96             1             1       5.85932       2.10462       124.951
97             1             1       6.61483       1.35808       125.954
98             1             1       7.10924       2.21002       127.063
99             1             1       7.99409       1.55309       128.172
100             1             1       8.50185       2.36015       129.344
101             1             1       9.38587       1.49392       130.211
102             1             1       9.87313       2.27599       131.336
103             1             1        8.8094       2.68035       132.458
104             1             1        9.3426       3.72463       133.399
105             1             1       8.19907       4.06897       134.358
106             1             1       8.40319       5.14669       135.368
107             1             1       7.45433        5.2143       136.538
108             1             1       7.71538       6.38012       137.447
109             1             1       6.77709        6.4532       138.659
110             1             1       6.94425        5.2225       139.536
111             1             1       6.02207       5.38223       140.687
112             1             1       6.04937       4.10428       141.481
113             1             1       4.95599       4.24681       142.516
114             1             1       5.00049       2.99237       143.398
115             1             1       4.00403       2.80002       144.546
116             1             1       4.36007       1.73426       145.587
117             1             1       3.27601       1.60646       146.704
118             1             1       3.23944       2.84043       147.635
119             1             1       2.30083       2.71393       148.845
120             1             1       2.38718       3.90769       149.789
121             1             1       1.41142       3.71456       150.972
122             1             1       1.46742       4.90295         151.9
123             1             1      0.585336         4.628       153.158
124             1             1      0.189124        5.8834       153.933
125             1             1       1.39431        6.5184       154.616
126             1             1       1.56664       6.08192       156.062
127             1             1       2.47297       7.10586       156.737
128             1             1       3.05578       6.45516       158.023
129             1             1       4.05039       7.29707       158.753
130             1             1       4.75842       6.45853       159.833
131             1             1       5.25983       7.33598       160.962
132             1             1       6.38789       6.88605       161.817
133             1             1       6.65089       7.82457       163.078
134             1             1       5.39913       8.17135       163.928
135             1             1        6.0848       8.96772       165.077
136             1             1       5.12829       9.66626       166.063
137             1             1       5.78207        10.419        167.18
138             1             1       4.81102       10.8426       168.265
139             1             1        5.4985       11.9072       169.079
140             1             1        4.4095       12.6179       169.953
141             1             1       3.92058       11.5638       170.941
142             1             1       2.85996       12.1205       171.861
143             1             1       2.61103       11.1212       173.032
144             1             1       1.47298       11.6987       173.892
145             1             1       1.10856       10.6675       174.937
146             1             1      0.146056       11.2279       175.944
147             1             1        30.697       10.2306       176.875
148             1             1       30.0628       10.9134       178.133
149             1             1       29.6211        9.9266       179.176
150             1             1       28.5924       10.5688       180.052
151             1             1       28.2821        9.6922       181.186
152             1             1       27.2378       10.2537       182.162
153             1             1       26.7731        9.1661       183.124
154             1             1        27.806        9.0287       184.252
155             1             1       27.4492       7.94434       185.266
156             1             1        28.522       7.50826       186.294
157             1             1       28.0535        6.9125       187.573
158             1             1       29.1795        6.4116       188.479
159             1             1       28.6835       5.52127       189.605
160             1             1        29.764       5.09379        190.56
161             1             1       29.0922       4.25541       191.693
162             1             1       30.2787       3.92123       192.565
163             1             1       29.6858       3.09574       193.725
164             1             1        30.809       2.46486       194.576
165             1             1       30.3397       1.73238       195.849
166             1             1      0.275648       1.34869       196.841
167             1             1     -0.272553      0.437625       197.957
168             1             1      0.857741     0.0851414       198.939
169             1             1      0.559294       26.0114       200.035
170             1             1       1.66324       25.7141        200.98
171             1             1       1.26917       24.6744        202.06
172             1             1        2.4146       24.4363       203.038
173             1             1       1.81858       23.5606       204.135
174             1             1       2.92548       23.2324       205.172
175             1             1       2.33736        22.403       206.257
176             1             1       3.32957       22.0303       207.329
177             1             1        2.7819        21.159       208.444
178             1             1       3.81661       20.6298       209.347
179             1             1       3.12488       19.8766       210.476
180             1             1       4.29553       19.2809       211.162
181             1             1       3.69822       18.5064       212.308
182             1             1       3.00513       19.3499       213.322
183             1             1       2.23717       18.5859       214.393
184             1             1       1.60437       19.4005       215.438
185             1             1      0.627539        18.713       216.402
186             1             1   -0.00190533       19.6286       217.417
187             1             1       30.1317       18.8423       218.298
188             1             1       29.7896       19.8524       219.343
189             1             1      -0.24531        20.063       220.404
190             1             1       30.5625       21.1256       221.437
191             1             1      0.537219       21.2984       222.464
192             1             1      0.184988        22.499        223.37
193             1             1       1.11482       22.4799       224.555
194             1             1       1.04246       23.7904       225.334
195             1             1       1.95743       23.6634       226.564
196             1             1       1.59951       22.6743       227.661
197             1             1       2.70654       22.6944       228.674
198             1             1       2.45034       21.6937       229.788
199             1             1       3.72123       21.4591       230.598
200             1             1       3.38813       20.5126       231.695
201             1             1       4.37682        20.345       232.854
202             1             1       4.08083       19.1951       233.827
203             1             1       5.00442       19.2034       235.061
204             1             1       4.77016       18.1096       236.083
205             1             1       6.05994       17.8865       236.817
206             1             1       5.95113       16.8691       237.918
207             1             1       4.81042       17.1471       238.887
208             1             1       5.07162       18.2591       239.883
209             1             1       4.00619       18.3334       241.036
210             1             1        4.4243       19.3186        242.16
211             1             1       3.26323       19.4574       243.204
212             1             1       3.69942       20.4487       244.231
213             1             1         2.632       20.9445       245.183
214             1             1        3.3733       21.8698        246.19
215             1             1       4.16412       21.0612       247.195
216             1             1       4.83703       22.0115       248.233
217             1             1       5.76333       21.3109       249.229
218             1             1       6.33494        22.303       250.269
219             1             1       7.13831       21.5835        251.37
220             1             1       7.73359       22.4559       252.522
221             1             1       8.41848       21.6842       253.592
222             1             1       8.82493       22.5455        254.68
223             1             1       9.78261       21.9177        255.63
224             1             1       10.2068       22.8671       25.7417
225             2             1       12.5174       24.4621       254.348
226             2             1       13.2721       23.8166       255.494
227             2             1       13.8154        24.731       256.591
228             2             1        12.772       25.0127       26.6854
229             2             1       13.2765       26.0284       27.7107
230             2             1        12.176       26.1965       28.7135
231             2             1       12.4993      0.409423       29.6019
232             2             1       11.4757      0.414741       30.8195
233             2             1       11.6715       1.71274       31.5364
234             2             1       10.6911       1.84043       32.7062
235             2             1       10.8165      0.685427       33.6597
236             2             1       9.72951      0.666992        34.788
237             2             1       9.86723       26.2953       35.5703
238             2             1       9.12842       26.4552       36.8627
239             2             1       9.31675        25.254       37.7887
240             2             1       8.54718        25.325       39.0817
241             2             1       8.63665       24.0575       39.9305
242             2             1       7.63665       23.9354       41.0779
243             2             1       7.60339       25.1674       41.9865
244             2             1       6.74858       25.0662        43.211
245             2             1       6.65102       26.2416       44.1167
246             2             1       5.48865       26.0986       45.0479
247             2             1       5.47834      0.241872       46.1271
248             2             1       4.46825     0.0692464       47.2961
249             2             1       4.53369       1.21855       48.3013
250             2             1       3.36325       1.13578       49.2858
251             2             1       3.63599     0.0763253       50.3986
252             2             1       2.40313      0.167423       51.3054
253             2             1       2.74493        26.258       52.4793
254             2             1        1.5621       26.1315       53.3941
255             2             1       1.92581       25.3342       54.6153
256             2             1      0.874707       24.9285       55.5916
257             2             1       1.21185       24.1243       56.7992
258             2             1     0.0459052       24.0124       57.7375
259             2             1   0.000148943       22.9215       58.7972
260             2             1       30.0081        23.041       59.7979
261             2             1       30.2907       24.0278       60.9361
262             2             1       29.1088        24.079       61.8619
263             2             1       29.5335       24.8538       63.0853
264             2             1       28.3831       25.4277       63.8656
265             2             1       28.7415       26.1078       65.1677
266             2             1       27.6172       26.4865       66.1189
267             2             1       28.1246      0.423025       67.3145
268             2             1       26.9697       1.03163       68.1201
269             2             1       27.5371       1.92658       69.1739
270             2             1        26.426       2.37876       70.1296
271             2             1       26.8304       3.34574       71.2239
272             2             1       27.9284        2.6517       71.9835
273             2             1       28.3013       3.42116       73.2472
274             2             1       29.1323       2.65301       74.3415
275             2             1       29.7593       3.51299       75.4333
276             2             1        30.624       2.76131       76.4158
277             2             1    -0.0927071       3.54749       77.6989
278             2             1      0.945146       2.72399       78.4572
279             2             1       1.26901       3.27222       79.8196
280             2             1       2.31548       2.52022       80.6028
281             2             1       2.74169       3.27244       81.8779
282             2             1       3.20142       2.24689       82.9153
283             2             1       3.84188       2.88925       84.2056
284             2             1       2.95789       3.90261       84.9118
285             2             1       3.42949       4.47815       86.2264
286             2             1       2.20982       4.92685       87.0093
287             2             1       2.45544        5.7584       88.2558
288             2             1       1.31412       6.24996       89.0812
289             2             1       1.80354       6.92409       90.3358
290             2             1      0.594987       7.41778       91.0534
291             2             1      0.907226       8.39624       92.1857
292             2             1       30.8624       8.67071       93.0671
293             2             1     -0.102049       9.78895       93.9928
294             2             1       29.8598       10.2087       94.8584
295             2             1       30.4423       11.1076       95.9778
296             2             1     0.0600217       10.2036       96.9461
297             2             1      0.628235       10.9866       98.1397
298             2             1       1.37527       10.2068       99.1548
299             2             1       2.26315       10.8208        100.13
300             2             1       2.84109       9.95109        101.17
301             2             1       3.64129       10.7965       102.111
302             2             1       4.25843       9.98974       103.224
303             2             1       4.99032       10.8611       104.173
304             2             1       5.72144       10.1379       105.358
305             2             1       6.62473       11.0168       106.246
306             2             1       7.06966       10.1962       107.496
307             2             1       7.99931       10.9251       108.481
308             2             1       8.63296       10.1483       109.647
309             2             1       9.61839        10.984       110.436
310             2             1       10.2103       10.0962       111.503
311             2             1       9.10445       9.53713       112.415
312             2             1       9.62126        8.6666       113.543
313             2             1       8.60411       8.26813       114.569
314             2             1       9.07269       7.17885       115.469
315             2             1       8.06412       6.87567       116.589
316             2             1       8.35532       5.80343       117.604
317             2             1       7.27452       5.72537       118.659
318             2             1       7.84578       4.73194       119.683
319             2             1       6.95159       4.29044       120.835
320             2             1         7.781       3.40167       121.744
321             2             1       8.29027       4.15861       122.866
322             2             1       9.22394       3.47065       123.757
323             2             1       9.61657       4.30065       124.996
324             2             1       10.3639       3.44244       125.926
325             2             1       11.0209       4.13709       127.107
326             2             1       11.7048       3.30015       128.162
327             2             1       12.7206       4.00834       129.024
328             2             1       13.1181       3.23438       130.265
329             2             1        14.234       3.84109       131.174
330             2             1        13.898       5.20134        131.62
331             2             1       12.6929        5.2413       132.493
332             2             1       12.8134        6.3927       133.514
333             2             1       11.7743       6.25051       134.667
334             2             1       11.7686       7.43169       135.656
335             2             1       10.8977       7.29482       136.899
336             2             1       11.0364       8.56895        137.69
337             2             1       10.1114       8.57437       138.875
338             2             1       10.4051       7.42969       139.843
339             2             1       9.54501       7.52242       141.108
340             2             1       9.69129       6.37437       142.129
341             2             1       8.56317       6.40917       143.062
342             2             1       8.78638        5.3408       144.162
343             2             1       7.68191       5.08445         145.1
344             2             1       7.95146       4.04228       146.198
345             2             1         6.852        4.0537       147.221
346             2             1       7.03369       5.21717       148.225
347             2             1       5.97906       5.13488       149.348
348             2             1       6.38398       6.24297       150.357
349             2             1       5.37138       6.39755       151.476
350             2             1       5.77672       7.53974       152.464
351             2             1       4.69714       7.87476       153.459
352             2             1       4.89418       8.83571       154.601
353             2             1       5.77915       8.10893       155.671
354             2             1       6.59641        8.9416       156.609
355             2             1       7.20366       8.27166       157.807
356             2             1       7.81659       9.32971        158.67
357             2             1       8.88537       8.63195       159.559
358             2             1       9.35675       9.50817       160.773
359             2             1       10.3597       8.95709       161.793
360             2             1       10.6888       9.94477       162.905
361             2             1       9.57683       10.1193         163.9
362             2             1       10.0068       11.1941       164.877
363             2             1        9.0643       11.5284       166.024
364             2             1       9.61371       12.4957        166.99
365             2             1       8.58268            13       167.962
366             2             1       9.11746       14.0538       168.932
367             2             1       8.11501       14.7183       169.878
368             2             1       7.76356       13.8877       171.129
369             2             1       6.83042       14.5897       172.125
370             2             1       6.47788       13.4768       173.025
371             2             1       5.47038        14.009       174.045
372             2             1       4.89916       12.9436       174.918
373             2             1       4.07194       13.5152       176.083
374             2             1       3.53145       12.4064       176.933
375             2             1       2.82542       13.1058       178.109
376             2             1       2.30228       12.1594       179.173
377             2             1       1.58259        12.736        180.38
378             2             1      0.991378       11.6985       181.301
379             2             1       30.9708       12.3231       182.129
380             2             1       30.6644       11.4079       183.293
381             2             1      0.554951       11.3258       184.324
382             2             1      0.333766       10.2625       185.423
383             2             1       1.42792       10.0999       186.401
384             2             1      0.823828       9.17724        187.45
385             2             1       1.84133       8.81395        188.53
386             2             1       1.25824       7.73629        189.39
387             2             1       2.27414       7.43621       190.487
388             2             1       1.72882       6.46592       191.422
389             2             1       2.72331         6.187       192.573
390             2             1         2.288       5.06373       193.621
391             2             1       3.35902       5.00058        194.71
392             2             1       3.04849       3.95799       195.775
393             2             1       4.18969       3.83002       196.815
394             2             1       3.86422       2.67437        197.73
395             2             1       4.92376       2.49329       198.796
396             2             1       4.38441       1.77408       200.014
397             2             1       5.38374       1.20848       200.996
398             2             1       4.79295      0.219438       201.986
399             2             1       5.90675       26.8327       202.977
400             2             1       5.55922       25.7763       204.068
401             2             1       6.64386       25.3646       205.013
402             2             1       6.25127       24.5289       206.192