LAMMPS data file via write_data, version 23 Jun 2022, timestep = 11111117

9706 atoms
2 atom types
9690 bonds
3 bond types
9674 angles
3 angle types
9658 dihedrals
3 dihedral types

0 36.89775039 xlo xhi
0 26.67072 ylo yhi
36.96148706377453 199.7901173362137 zlo zhi
0 5.12294324980065 0 xy xz yz

Masses

1 14
2 15

Pair Coeffs # lj/cut/omp

1 0.0914 3.95
2 0.1947 3.75

Bond Coeffs # harmonic/omp

1 449.5 1.53
2 449.5 1.53
3 449.5 1.53

Angle Coeffs # harmonic/omp

1 62.0967 114
2 62.0967 114
3 62.0967 114

Dihedral Coeffs # opls/omp

1 1.411 -0.271 3.145 0
2 1.411 -0.271 3.145 0
3 1.411 -0.271 3.145 0

Atoms # molecular

1 3 1 5.9090734474443805 3.576662199028474 39.63581046858667 0 0 0
2 3 1 6.177395907101687 3.509032598056376 41.098865570880896 0 0 0
3 3 1 7.260543182670055 2.4674676227984405 41.33431582385967 0 0 0
4 3 1 8.129034148750206 2.4803595749538108 42.54758349736097 0 0 0
5 3 1 8.508096961743156 1.0969401405290438 43.0905883689902 0 0 0
6 3 1 9.07076859933487 1.3111492806335672 44.482737537971694 0 0 0
7 3 1 9.843623772754949 0.042856594399624665 44.82009176338167 0 0 0
8 3 1 10.684335653278762 0.06725256556926744 46.12258709091517 0 0 0
9 3 1 11.501855056086969 25.38358150879426 46.245259551581206 0 -1 0
10 3 1 11.903271519623972 25.57256336613922 47.68085922486586 0 -1 0
11 3 1 12.977089572493162 26.611339045477223 47.58309176497472 0 -1 0
12 3 1 13.583078110944685 26.6681454366691 48.94203771796925 0 -1 0
13 3 1 14.734654006184128 0.9634441355927291 49.153783155646046 0 0 0
8796 59 1 5.93446858006798 17.757579999670995 45.95551016292737 0 0 0
8790 58 1 1.522577758177185 21.05643023275642 41.13964203388008 1 0 1
2650 47 1 14.111943632347531 1.2976621816498153 39.81493754805556 0 0 0
9031 61 1 3.7309540791019384 19.675083300735736 48.406974951324 0 0 0
4538 32 1 14.261944870002953 24.36358361664565 38.71313479017661 0 0 0
314 59 1 18.162906495447526 4.7449974501439875 49.234929704563065 0 0 0
9404 12 1 4.062496336193128 24.345474894247193 48.12119972987885 0 0 0
1046 7 1 2.310522346935154 13.83477986347728 37.00467621919744 0 0 1
9632 64 1 1.9799579943220684 3.513288821875878 41.08011470785966 0 1 0
224 3 1 4.937022711621491 4.603153299397501 39.34261019955628 0 0 0
304 59 1 11.048894932018388 3.0964392925966604 41.05285605874154 0 0 0
305 59 1 11.725034237418217 3.1533436879219665 42.3055815864013 0 0 0
306 59 1 12.242908037939609 1.7779996720658033 42.76937087936278 0 0 0
307 59 1 13.565178957121063 1.9156182709972258 43.50853044599786 0 0 0
308 59 1 13.775812084385947 0.8865669561835796 44.5698679818693 0 0 0
309 59 1 15.18482467679437 1.1014427263853748 45.138864207176596 0 0 0
310 59 1 15.108829708799416 2.2196471029191085 46.13654916978925 0 0 0
311 59 1 16.52609026983724 2.6791054518778816 46.529052633380466 0 0 0
312 59 1 16.553096660878282 3.252631891905015 47.90798169650168 0 0 0
8349 54 1 0.7504297298922183 15.608047651286798 39.426576311023524 0 0 0
4535 31 1 17.468420961052246 20.765027032242163 38.42187648036629 0 0 1
1656 56 1 9.413243700991712 19.413045891064353 38.723838490859926 0 0 0
3099 17 1 12.341739697604684 6.773695320171106 38.269297077333114 0 0 0
8140 53 1 8.58182940704002 7.621313315522983 52.82565053436645 0 0 0
2041 50 1 11.0761161108391 22.3460549586814 40.17405061945598 0 0 0
6383 36 1 3.048662736512324 15.114280860220244 52.26159368409879 0 0 0
7807 46 1 0.9457006090877372 8.504158565813126 44.09691247727031 0 0 0
382 59 1 10.351675246199786 4.403686736618339 40.67057936064592 0 0 0
383 4 1 8.63744344450722 5.760019363843416 43.437823742632744 0 0 0
384 4 1 9.248136353862797 5.695674366665475 44.774241006837435 0 0 0
385 4 1 9.981740087594648 4.410610787987767 44.953780886341825 0 0 0
386 4 1 10.762458458690267 4.454370562050365 46.27706723821969 0 0 0
387 4 1 11.755069083836764 3.325455086732073 46.46328558660514 0 0 0
388 4 1 12.452799006099788 3.3216292862656025 47.84056191525998 0 0 0
389 4 1 13.387446756304923 4.491431443804003 48.08966682423703 0 0 0
390 4 1 13.795696130984144 4.369283655012647 49.524013532003195 0 0 0
391 4 1 14.607674159143247 5.617730980671977 49.854095960941784 0 0 0
392 4 1 15.289765998594746 5.531841745304572 51.17929879326225 0 0 0
393 4 1 16.089474566016527 6.80889741850821 51.57416079835286 0 0 0
8039 53 1 0.2624947002044524 11.142360552375877 39.76785228058704 0 0 0
2200 14 1 4.30061142785374 0.0882650567064774 38.3102562562076 0 1 1
8792 59 1 3.0985251451308704 20.03681793328577 42.52779250742517 1 0 0
7810 46 1 2.7920907830586184 7.5326903705891946 47.29351117742334 0 0 0
8576 30 1 2.402920518378258 16.623645677576935 46.0260361309024 0 0 0
1671 11 1 14.545456646256607 18.83165494659359 49.5172917848197 0 0 0
5164 38 1 1.2385461823487647 4.0674735760805785 50.11173346903422 0 0 0
602 4 1 4.914002737289149 9.002463075130892 39.582583584701574 0 0 0
603 4 1 5.687372873930486 7.85826883865941 40.09666987351631 0 0 0
604 4 1 6.308481248892328 8.154468911844708 41.368436689244355 0 0 0
605 4 1 7.247474332302148 7.092216144628938 41.72775509182301 0 0 0
606 4 1 7.788761394927539 6.959716358229403 43.1332008333581 0 0 0
4372 28 1 12.58046293446931 21.030849926090767 37.20797068228463 0 0 1
6381 36 1 1.3976112514621084 16.173303532187205 50.476607532244174 0 0 0
609 6 1 9.134976568486104 9.346358334750468 39.858360949518335 0 0 0
610 6 1 10.519636482102037 9.194209878563639 40.60868150474501 0 0 0
611 6 1 10.69703841097557 7.927387645429282 41.46662382490865 0 0 0
612 6 1 11.9744560040561 8.01833969969225 42.2456222899797 0 0 0
613 6 1 12.375060067938593 6.559575038618189 42.50008886402361 0 0 0
614 6 1 12.75238922165582 6.299976690803167 43.94289508776684 0 0 0
615 6 1 13.718250605849734 5.166184314868378 44.16083848513443 0 0 0
616 6 1 15.03508629844873 5.694308286594137 44.732931941330904 0 0 0
617 6 1 14.916869353679855 6.493544567229989 45.96948524942115 0 0 0
1657 56 1 9.500466589595662 18.036295227738936 39.26617412622143 0 0 0
8042 53 1 2.4519194178899095 10.830856337145581 41.552517742584214 0 0 0
2203 14 1 6.442116300129348 25.842737957627513 41.325781865421746 0 0 1
8043 53 1 3.3436892240774485 11.098270533253029 42.88486705432897 0 0 0
2880 17 1 16.74063084344287 4.566689983704383 42.445824017719424 0 0 0
7494 64 1 2.584780793358126 3.0745757810000596 46.18849494211441 0 0 0
8132 53 1 2.3525032829692 11.794669110081832 46.35174860925458 0 0 0
831 52 1 8.86290831955692 10.027225541302037 43.38450589754792 0 0 0
832 52 1 9.457095015540858 10.313410652645123 44.731704700150054 0 0 0
833 52 1 9.933227399019382 8.954651853566661 45.03736363179584 0 0 0
834 52 1 10.421945157106654 8.847019881233413 46.41986694049754 0 0 0
835 52 1 11.581495253286711 7.795490472809745 46.571863650169 0 0 0
836 52 1 12.179231618534573 7.713823546644215 48.029482421941 0 0 0
837 52 1 13.17239904926008 8.869260671370768 48.301239466087345 0 0 0
838 52 1 13.707451593678064 8.920699114562288 49.67692491487699 0 0 0
839 52 1 14.597193874581295 10.089207367465173 50.08712841373513 0 0 0
840 52 1 15.157293942909016 9.91413080609081 51.48575683802086 0 0 0
3714 25 1 18.493873189283466 12.10075244923061 43.925416836577384 0 0 0
9319 3 1 4.177793767680245 23.5104470076705 42.67233487368469 0 0 0
607 6 1 7.899074773803937 10.55049788480935 38.014147459278334 0 0 0
4545 32 1 18.38908218482311 21.903877728346124 44.69652568115618 0 0 0
1499 11 1 6.255193912765841 17.204775673778574 39.77535199759555 0 0 0
2202 14 1 5.859360216421544 25.64952392397911 39.9685614385248 0 0 1
3323 13 1 17.267690246191023 7.377080900818364 38.503145027127374 0 0 0
222 3 1 3.610506208948063 5.938402888875118 37.620318170927504 0 0 0
7723 52 1 4.759466105910349 5.63773492391779 44.2595228905938 0 0 0
1051 52 1 6.0155171474147595 12.859358331547629 40.13412155856711 0 0 0
1052 52 1 6.250473710189547 12.224346267672011 41.47546749529007 0 0 0
1053 52 1 7.62415037266992 11.619757482798647 41.70603501105607 0 0 0
1054 52 1 7.743856826880892 10.912732003528413 43.102475899210624 0 0 0
1055 60 1 11.171199594227023 12.572936484695646 41.68243598013636 0 0 0
1056 60 1 12.491397963723134 12.73875223202172 42.353767364160944 0 0 0
1057 60 1 12.76986595546411 11.35047669185476 42.80335116652945 0 0 0
1058 60 1 12.911767801680394 11.015330715165042 44.27773392354083 0 0 0
1059 60 1 13.649661952657407 9.764938885462886 44.7556428271127 0 0 0
1060 60 1 14.991658080211142 10.239016819754148 45.13519316570508 0 0 0
1061 60 1 15.06634158985864 10.78129231159312 46.50051766345252 0 0 0
1062 60 1 16.43172031692981 11.352215720755975 46.64575716251818 0 0 0
1063 60 1 16.54643612709127 11.929097011427755 47.99794655100961 0 0 0
1497 11 1 4.675827249305121 18.45044425159541 37.997242640889404 0 0 0
1050 52 1 4.511140023085306 13.088706747488246 40.20714259087984 0 0 0
3547 21 1 13.91650908720146 11.128735491757189 38.4574070118485 0 0 0
621 6 1 17.64544534846367 9.072835879381785 49.131418029339365 0 0 0
9407 12 1 5.740128600982618 22.10531935198083 50.62427062629113 0 0 0
8041 53 1 1.4227060791534738 11.977358705359984 41.61625510753421 0 0 0
1276 60 1 9.72880516777708 14.319021907652179 38.75604727302456 0 0 0
1277 60 1 9.687714349827594 13.666373670099738 40.117100069047204 0 0 0
1278 60 1 11.112856520674626 13.61788654817809 40.56967947522133 0 0 0
1279 11 1 8.777129195064413 14.485244319848219 43.34203305783784 0 0 0
1280 11 1 9.362839713945192 14.574659662207887 44.68183116349196 0 0 0
1281 11 1 10.37269221786393 13.487497854836597 44.96778108034989 0 0 0
1282 11 1 10.864177123437559 13.303453271290152 46.400792295563114 0 0 0
1283 11 1 11.323933642839375 12.03232578960718 46.92091481685089 0 0 0
1284 11 1 12.296766317236564 11.873037432182846 48.140953760706964 0 0 0
1285 11 1 13.083185181516779 13.114183940694147 48.14550903990844 0 0 0
1286 11 1 14.029455966753588 13.193657524664124 49.39187685147942 0 0 0
1287 11 1 14.722292380637608 14.50208751163621 49.42211341126437 0 0 0
1288 11 1 15.301541256328193 14.542341316721512 50.80696387700408 0 0 0
1289 11 1 16.187451299119687 15.675929304853929 51.15134441495596 0 0 0
4374 28 1 14.124099524879524 20.055821241083052 39.01784913886233 0 0 1
3713 25 1 17.245643197166924 12.085723417189913 43.05375084487878 0 0 0
5552 40 1 2.670943351605225 7.390612501311889 51.48759548749641 0 0 0
3098 17 1 12.438562592499297 7.995178445279766 37.40915280121109 0 0 0
2038 50 1 8.090872185070012 23.79538267295694 38.159105061081576 0 0 0
3325 21 1 15.440026192974848 9.953860287695234 40.18271695014329 0 0 0
3710 25 1 15.60306441808452 14.410432262722674 40.40086414727445 0 0 0
8579 30 1 4.070793301297903 14.329721062437086 49.01890739696521 0 0 0
223 3 1 4.399845711881875 4.663802063814826 37.95333893797772 0 0 0
1500 11 1 6.445274516635542 16.961281495860312 41.19618178316096 0 0 0
1501 11 1 7.499741359232037 15.860755494152492 41.54175143436774 0 0 0
1502 11 1 7.901543826914316 15.616182314592198 43.02868416005917 0 0 0
1582 56 1 12.337097491513813 15.930579741936988 42.9282505843301 0 0 0
1583 56 1 13.79474183851559 15.633036034600245 43.4775275198606 0 0 0
1584 56 1 13.890765839348017 14.629453585608381 44.56417658873948 0 0 0
1585 56 1 15.185099104114071 14.338454282096551 45.17969800632974 0 0 0
1586 56 1 15.363343505393663 15.539863128846259 46.01043056145123 0 0 0
7718 52 1 1.254234670949652 7.824319254659889 39.529390785814115 1 0 0
8130 53 1 0.6799996187543467 13.379569296671278 45.1706528487106 0 0 0
8577 30 1 2.640810900658117 15.611282182510937 47.12771397396144 0 0 0
9634 64 1 3.4926309305885606 2.1863612532516696 42.58307626716206 0 1 0
378 59 1 7.518458898231479 6.997425792523528 37.04446229923892 0 0 0
3707 25 1 12.548706168201878 15.572464838301498 38.18823842485513 0 0 0
9406 12 1 5.3736237671853155 23.33245774925192 49.829480520681756 0 0 0
9639 64 1 6.91391866304288 25.384915947397126 46.389013517235156 0 0 0
1274 60 1 8.404659154045476 15.725092689372016 37.14715155648313 0 0 0
2651 47 1 15.431131304026241 0.8615111644860348 40.407824665358596 0 0 0
1658 56 1 10.546047997383226 18.036039226949917 40.356394246431236 0 0 0
1659 56 1 10.992521258956549 16.763610645954635 41.0763862131295 0 0 0
1660 56 1 12.185108371819155 17.073939497105894 41.98893989200252 0 0 0
1661 11 1 7.61165273693659 20.132446869274414 41.58481361186707 0 0 0
1662 11 1 7.875491425895334 19.970520178980383 43.08304877580496 0 0 0
1663 11 1 9.015724348625426 19.02727853574031 43.25375584015365 0 0 0
1664 11 1 9.03680302252358 18.88353582846362 44.78663212527098 0 0 0
1665 11 1 10.273221102413535 17.975202588629962 45.12123075806347 0 0 0
1666 11 1 10.84612595172834 17.873596580400857 46.536460781249275 0 0 0
1667 11 1 11.605620191204698 16.623318110926064 46.385613126526394 0 0 0
1668 11 1 12.286727408519306 16.510511423480388 47.67589216905939 0 0 0
1669 11 1 13.088465910607072 17.77512709424909 47.88340223826276 0 0 0
9630 64 1 0.2295640038101101 2.728382256828836 39.45247956979133 1 1 0
8356 54 1 5.551541919406738 13.248128078850117 44.99142767650345 0 0 0
7492 64 1 1.2970331123838563 4.631610128206718 44.38943432181965 0 0 0
1880 11 1 3.750453081695783 23.47586232879667 38.06719075954255 0 0 0
2881 17 1 17.06701817964499 3.293128418700578 43.086451145094024 0 0 0
619 6 1 16.385375227518534 7.325483431612194 47.932684406171774 0 0 0
5995 25 1 2.5485021302622815 11.851193026084122 51.474775494567425 0 0 0
8802 59 1 10.305728273811548 14.53973708813212 50.814304039899966 0 0 0
5993 25 1 0.8647980371932747 13.0028178130175 50.00251908303228 1 0 0
9317 3 1 2.4846621408307765 24.498188907517452 41.044257767467336 0 0 0
1881 11 1 4.3694848449551245 22.114343142209115 38.38270163479269 0 0 0
1882 11 1 5.185295644626343 22.20449071873845 39.686736579429954 0 0 0
1883 11 1 6.513132408994707 21.56519819972593 39.9080619328101 0 0 0
1884 11 1 6.66033580715289 21.163116123578043 41.32583218170568 0 0 0
1964 50 1 12.228511132705739 21.145405082841812 42.01995119763957 0 0 0
1965 50 1 12.290038727430632 20.15547205079487 43.159005661006745 0 0 0
1966 50 1 13.680996221096123 19.837776609262757 43.57777269375116 0 0 0
1967 50 1 13.910091248257547 18.8002271052993 44.61374330667829 0 0 0
1968 50 1 15.280600537113285 18.71463695508911 45.35167405045136 0 0 0
1969 50 1 15.48175394036291 19.92878782994255 46.12208942862583 0 0 0
1970 50 1 16.603170327037365 19.915852841062378 47.15406471153925 0 0 0
1971 50 1 16.80558014839665 21.219725963375996 47.92493358940332 0 0 0
4156 29 1 18.588786851598694 16.540766215676417 43.537533557417 0 0 0
608 6 1 9.056744515873397 10.523602523887615 39.00558832595824 0 0 0
1047 7 1 3.366914769794373 14.819216135827679 37.07817676547857 0 0 1
2432 47 1 18.672472323383367 0.023031715707442304 44.375184301672405 0 0 0
2199 14 1 3.7192772294018597 1.4235674674818424 38.054514626835584 1 1 1
7812 46 1 4.154601938391462 6.288850268285015 48.76495815957905 0 0 0
1291 11 1 17.712132222306927 17.063255770747464 52.76789352647698 0 0 0
9027 61 1 0.9593005110609272 21.847048561663968 44.88859928614317 0 0 0
380 59 1 8.948127851444344 5.980248204452774 38.993173430177954 0 0 0
2042 50 1 10.9420103323488 21.484683341004732 41.42828676872952 0 0 0
2043 13 1 12.250655158567346 21.01782774529467 47.71396690026783 0 0 0
2044 13 1 12.873233943177441 22.400178556073 48.051972013624216 0 0 0
2045 13 1 13.656929633444918 22.39400277274605 49.36829155025276 0 0 0
2046 13 1 14.833779559378593 23.376806250846254 49.32628160111267 0 0 0
2047 13 1 15.063347937587302 23.461542307342775 50.84631916482859 0 0 0
4534 31 1 17.24408713599432 21.169555942298455 37.002212418684486 0 0 1
9401 12 1 1.4036062553612583 25.980962910711007 45.71263356097561 0 0 0
9410 12 1 8.222384091366896 20.994394538946608 53.09299695937705 0 0 0
381 59 1 9.711440462085585 4.610545895045892 39.2791268778808 0 0 0
2215 55 1 18.082893111199834 0.26947596613557395 48.83730264094432 0 1 0
7811 46 1 2.9042799664094536 6.161417317587696 47.851392692141 0 0 0
8136 53 1 5.467944848500602 10.115922483651422 49.87790948420648 0 0 0
8794 59 1 4.65578526471068 18.968057905847605 44.15929078155844 1 0 0
14 3 1 15.13741440104234 1.0542429494197838 50.58959134585254 0 0 0
9316 3 1 1.592000077244717 25.677557272434324 40.810200869268996 0 0 0
1588 56 1 16.639540043803166 16.52473307540276 47.9453407901358 0 0 0
618 6 1 16.29837188545601 6.528213917021184 46.55608986219511 0 0 0
2116 13 1 7.51854672431164 24.25250581434018 42.980794608593484 0 0 0
2117 13 1 8.77920374937119 23.45369708874835 43.215831373774236 0 0 0
2118 13 1 9.039743469619385 23.351517653754215 44.68413735028382 0 0 0
2119 13 1 9.973335568729539 22.24947827115315 44.951744345327604 0 0 0
2120 13 1 10.661093529784058 22.193550545732077 46.29825494803647 0 0 0
2121 13 1 11.570894308154664 21.100660109391207 46.36066933596285 0 0 0
2204 55 1 10.759762468712347 26.601202701127864 40.13192061500672 0 0 0
2205 55 1 10.670652414408885 25.567184304248816 41.190295384107614 0 0 0
2206 55 1 11.893152625939372 25.542620421409406 42.048873659708924 0 0 0
2207 55 1 12.129936301485902 24.60606874909638 43.17022399881676 0 0 0
2208 55 1 13.517520330983377 24.021867247624556 43.38220623810516 0 0 0
2209 55 1 13.767215198039546 23.12394421982764 44.6724909772132 0 0 0
2210 55 1 15.171718566507069 23.266948702314366 45.176493843344865 0 0 0
2211 55 1 15.222068811658477 24.59271681378581 45.97374380901452 0 0 0
2212 55 1 16.624982238670626 24.415318905988066 46.50557894127897 0 0 0
2213 55 1 16.657484128244324 25.673399391440427 47.48508273094097 0 0 0
1973 50 1 18.452917043941284 22.574556393735588 49.23306552097687 0 0 0
7500 64 1 6.893458328403323 26.16120523013276 50.98994586333128 0 -1 0
2882 17 1 18.429484072049856 3.4828395952096876 43.73878530894451 0 0 0
9029 61 1 2.420440276338961 20.632417931864524 46.40717345589321 0 0 0
1670 11 1 13.443644695337676 17.808806132714693 49.36308209352803 0 0 0
6832 20 1 2.619458648457646 19.669042642843095 52.77450067315175 0 0 0
9403 12 1 2.823839774658927 24.469337853027586 47.17496506974 0 0 0
2427 55 1 9.354242296726962 0.09202391824819232 39.58140262168015 0 1 0
2428 47 1 15.319207482589203 26.51345049084035 41.43177663743691 0 -1 0
2429 47 1 16.75367858363903 26.47177523288044 41.81462321544468 0 -1 0
2430 47 1 17.062467059120067 25.53816978907027 42.985445304728586 0 -1 0
8353 54 1 3.3978571992980067 15.586386070347944 42.873114890279396 0 0 0
3711 25 1 15.693815602697898 13.345365210018912 41.46407686046886 0 0 0
2048 13 1 16.23358120481998 24.502264488275348 51.11590389433577 0 0 0
9324 3 1 6.9404468018885845 20.57263699267187 47.80372562145375 0 0 0
8578 30 1 3.951519028861233 15.558981737407631 47.98601629032963 0 0 0
2647 15 1 12.265246415476106 3.5442390164523885 37.19220066305698 0 0 1
7496 64 1 3.792889498657692 1.8399296931746947 47.8372090584681 0 0 0
1581 45 1 8.478247776171404 19.409171850338673 37.559255451767626 0 0 1
1064 60 1 18.008815293780877 12.35304149072439 48.25739910528052 0 0 0
8581 30 1 5.66607007878317 13.358681408127842 50.85148891471492 0 0 0
8583 30 1 7.311679301927732 12.437515408421575 52.449335592417405 0 0 0
2876 17 1 13.468115719123679 6.910853538298887 39.3086631154632 0 0 0
2877 17 1 13.937722255026543 5.6130133626282195 40.13122786272317 0 0 0
2878 17 1 15.375637662837537 5.586785379888003 40.65059768277092 0 0 0
2879 17 1 15.610939730199906 4.309831153315533 41.47508593849424 0 0 0
3706 25 1 12.5330692880375 16.741737715486344 37.22653886227256 0 0 0
5165 38 1 1.149037548942292 2.882859489618653 51.021523915591736 0 0 0
4543 32 1 17.25119583523908 20.82819178830766 42.805025621011254 0 0 0
9315 3 1 1.078283766174132 25.849967166244948 39.39482977911298 1 0 0
8799 59 1 8.189203208720148 15.57945135990803 47.79516453165364 0 0 0
8582 30 1 7.119366329917744 13.49124055848456 51.42302245564258 0 0 0
2431 47 1 18.406430781299647 25.414188751960825 43.682746254213555 0 -1 0
9331 3 1 12.587195124936134 21.25208719866372 52.78067415119102 0 0 0
8789 58 1 1.1359559775014274 21.520648541824276 39.819724849090775 1 0 1
5167 38 1 2.728816449845217 1.7353807811412758 52.67481119744264 0 0 0
8354 54 1 3.6499420139029475 14.26434874839532 43.58188361147835 0 0 0
2425 55 1 7.791774299452538 1.0697183720744097 37.88730390375841 0 1 0
3326 21 1 15.464966645068287 9.148512994186532 41.44037817047194 0 0 0
3327 21 1 16.81111201119928 9.032217033081624 41.96948611379982 0 0 0
3328 21 1 16.9441047246611 7.866021311159244 42.890704513004835 0 0 0
9409 12 1 6.957304638148523 21.109444260447024 52.30821517461989 0 0 0
7493 64 1 1.297172813363232 3.5491118759303064 45.50338434326304 0 0 0
5554 40 1 4.171577055417247 6.216197570009938 52.94355237313626 0 0 0
7495 64 1 2.4839318609884216 2.4862844642080733 47.57610858128041 0 0 0
2050 13 1 17.820036185775198 25.290670501830128 52.459616872160986 0 0 0
3330 21 1 18.409503813099203 8.987260852249085 44.41595896493968 0 0 0
9323 3 1 6.697235839968879 21.077292919437365 46.42960560278734 0 0 0
9637 64 1 5.510175611307552 26.40350477359279 44.78642754306466 0 0 0
3324 21 1 14.086162198892609 10.29210131893913 39.76116392237524 0 0 0
1496 11 1 3.2320398660733893 18.56172142762858 38.075722815031 0 0 0
8350 54 1 1.2237026364752102 16.826516459026898 40.1641734541056 0 0 0
3708 25 1 13.817787951192402 15.335707275652323 39.090365744778126 0 0 0
3709 25 1 14.256771371473805 14.141327748117378 39.74859093219329 0 0 0
5996 25 1 2.8719755527920006 10.674657198645848 52.29564801366057 0 0 0
8362 54 1 10.044213310336495 9.82078057450978 49.95868164181891 0 0 0
4153 26 1 17.554562793111185 16.678440340916474 38.573422844705576 0 0 0
5553 40 1 2.766264133518371 6.2124831314557465 52.405515373545846 0 0 0
8133 53 1 2.4246576686178747 10.804639075773405 47.54649665776995 0 0 0
842 52 1 16.884257070194163 11.34937011635452 53.02494610434508 0 0 0
2201 14 1 5.048037380728214 0.12188923052251983 39.54460115669693 0 1 1
6830 20 1 1.328179610363465 20.958213288567254 51.19378407044396 0 0 0
9638 64 1 6.06097006932397 26.60123489932938 46.11305964634674 0 0 0
9405 12 1 4.130040886737082 23.21288216018589 49.09068478098324 0 0 0
4154 29 1 16.58479701669801 17.77473513710258 42.57108153209986 0 0 0
4155 29 1 17.20911926117466 16.49474146814395 43.00405501053402 0 0 0
9402 12 1 2.8227182156923702 25.673598967380276 46.335180277873455 0 0 0
601 4 1 4.264629910931846 8.929544782847591 38.28716563224212 0 0 0
8044 53 1 4.2109482068657975 9.99448558008726 43.22133800779969 0 0 0
2426 55 1 9.063242669884088 1.2843510210068538 38.74500195006675 0 1 0
6380 36 1 0.6277806447944959 17.36516588858765 50.02678580827303 0 0 0
5166 38 1 2.5077508880263286 2.9443662498183643 51.70978874523669 0 0 0
3551 22 1 18.30903348738987 11.060718162257471 38.80748579326304 0 0 0
4377 29 1 15.399926465197856 17.759246472206733 41.66289333452185 0 0 0
8574 30 1 0.9612299341087126 17.720980224743624 44.26206183927612 1 0 0
9646 64 1 12.054060312088462 24.50936569930055 52.48191772561493 0 0 0
8788 58 1 0.20223917587546905 20.346480293477143 39.31241548380714 1 0 1
3712 25 1 17.10468942666058 13.198667937740698 42.0123438174658 0 0 0
2039 50 1 9.486959790635053 23.58860416548633 38.628457474806915 0 0 0
2872 1 1 18.183067632197073 2.191742034107967 39.04209047228386 0 0 1
6829 20 1 1.200863419264389 22.117618263023765 50.21745987117093 0 0 0
4539 32 1 14.16384735168818 23.226299386411945 39.77048770866899 0 0 0
4540 32 1 15.526155216681866 23.04506490873863 40.41190909287471 0 0 0
4541 32 1 15.621159802290332 22.16520629727062 41.531465475436086 0 0 0
4544 32 1 18.475427990365283 20.82946788661557 43.62142594794609 0 0 0
9327 3 1 9.727868622848968 18.64621971444823 49.577383884378904 0 0 0
9400 12 1 1.2834028522660839 0.44414744613081975 44.82162631414556 1 1 0
8054 53 1 11.38858732290362 6.516446777476884 51.04966587229277 0 0 0
8355 54 1 4.617594933204092 14.400922004282432 44.67614423282325 0 0 0
15 3 1 16.06747792017144 2.2265028340280866 50.954356257567234 0 0 0
8139 53 1 7.315953574706373 7.748478779826912 52.1030835704639 0 0 0
9034 61 1 5.465001768051031 17.444193446545498 50.65678265436533 0 0 0
8361 54 1 9.322870701399733 11.068096999944073 49.45395866075394 0 0 0
7276 50 1 1.00559261508409 26.28114228109178 49.37486799713959 0 0 0
1587 56 1 16.60542530502714 15.374093387277936 46.90414101355405 0 0 0
7733 52 1 12.116912731170414 2.275913585305173 52.58161874366587 0 0 0
9322 3 1 5.541541080120054 21.977301832990396 46.134091241419796 0 0 0
16 3 1 16.958631904037276 2.1250671748825813 52.15560080044797 0 0 0
9318 3 1 2.993690252910376 24.422105945248653 42.4167551665162 0 0 0
7278 50 1 2.6507194714584923 25.355705643862546 51.28275575673582 0 0 0
7721 52 1 3.272885248308898 6.672948258842338 42.54906349801625 0 0 0
6382 36 1 2.3136927387839226 16.35268453446747 51.66991658774017 0 0 0
7817 46 1 7.52360590417412 2.8700116060714014 52.67130857767882 0 0 0
9633 64 1 2.817087959951776 2.213569477310482 41.296814742577446 0 1 0
4376 29 1 15.434548511277377 18.746516484396043 40.536503477273946 0 0 0
7499 64 1 5.776020562824067 0.38166355651790396 50.69772795547917 0 0 0
620 6 1 17.53037457495267 8.337918899599513 47.859826787446366 0 0 0
1498 11 1 5.276564337506846 18.318214001641437 39.3728102746679 0 0 0
9640 64 1 7.88645020395178 25.430855643307304 47.59606904904959 0 0 0
7808 46 1 2.0871747404409073 8.420205834691668 45.05402559238014 0 0 0
8137 53 1 5.74323647286192 8.911019819605333 50.781646092650895 0 0 0
1674 11 1 16.663972104694114 20.265807918539323 52.47979359764476 0 0 0
9036 61 1 7.242357018658493 16.50950632511286 52.316265414354106 0 0 0
9321 3 1 5.427528881241381 22.168150420345825 44.66986590336697 0 0 0
8797 59 1 6.993082886265287 16.746792507251136 46.19034692878749 0 0 0
1590 56 1 18.313670611310894 17.95040109336694 49.289066245718026 0 0 0
9035 61 1 6.8561257858597395 17.59068787958573 51.295597569738376 0 0 0
9326 3 1 8.674353590711807 19.77592381210229 49.440033772435314 0 0 0
8575 30 1 0.9749135457965477 16.81785311956082 45.505804452700346 1 0 0
2115 13 1 7.547884031936542 24.76995760620566 41.56113247475314 0 0 0
841 52 1 16.161323866588877 11.088852878668432 51.66562963042084 0 0 0
9645 64 1 11.54840008654622 24.425211779875237 51.031309792776675 0 0 0
8360 54 1 8.569124806156472 10.984273941555712 48.13678853402562 0 0 0
9032 61 1 3.86900532010201 18.58414989385646 49.29615052251604 0 0 0
8801 59 1 9.682746086992868 14.406159125095794 49.529876812125885 0 0 0
8363 54 1 10.63071366916278 10.025504289413394 51.33358674211221 0 0 0
4542 32 1 16.877220642544167 22.247210198749986 42.39862264295467 0 0 0
8359 54 1 7.870041755329641 12.328370664531693 47.89561368737537 0 0 0
1065 60 1 18.348782564649984 13.183413883305715 49.468703879493944 0 0 0
8580 30 1 5.476437769723917 14.102049663061438 49.65517577802662 0 0 0
8795 59 1 5.614729148715431 17.832543196887507 44.4582285368031 1 0 0
7498 64 1 5.492752125362726 0.7186557569875568 49.254833063578566 0 0 0
8798 59 1 7.451621061128431 16.808816714883633 47.67888745745751 0 0 0
8358 54 1 7.011915485390137 12.207863027381217 46.60827268033532 0 0 0
8040 53 1 0.9370983268852853 12.438425516658144 40.32902666764719 0 0 0
9408 12 1 6.924239532262703 22.222903857928873 51.43522426786568 0 0 0
2870 1 1 16.844711638321282 3.319989249714137 37.310452224019144 0 0 1
8138 53 1 7.177562922814738 8.851723476458353 51.16790201016757 0 0 0
8357 54 1 6.495733764339486 13.484553100791986 46.16730372167139 0 0 0
7724 52 1 5.451752483410969 4.367417002452614 44.672484400735215 0 0 0
7725 52 1 5.987855501998949 4.386957554696782 46.06331920669847 0 0 0
7726 52 1 6.954679584812697 3.1759192049656946 46.49238501704701 0 0 0
7727 52 1 7.605268052044934 3.1729705786536355 47.77446930619915 0 0 0
7728 52 1 8.480737797233376 1.927027297616724 47.9328452759443 0 0 0
7729 52 1 9.393969830560199 2.266839629750679 49.053626202462006 0 0 0
7730 52 1 9.956957129520292 1.0585261075193542 49.837441366834724 0 0 0
7731 52 1 10.65489297781242 1.0675858319273221 51.140290981412676 0 0 0
7732 52 1 11.74972922758941 2.175741167201895 51.15553659141965 0 0 0
7816 46 1 7.277119304693411 3.5623263310505866 51.36760899849401 0 0 0
2649 47 1 14.039191456675507 2.3454373670965656 38.71212928690154 0 0 0
4537 32 1 12.864719888955737 24.517243775844 38.06856815007822 0 0 0
8805 59 1 13.059117983793364 16.602932757111798 52.55711375488279 0 0 0
9636 64 1 4.917406172088285 1.051473072894634 44.33480393088862 0 1 0
9644 64 1 10.523688293639742 23.367420468351224 51.07720012516077 0 0 0
9320 3 1 4.291658161895245 23.058192971475776 44.12198310106997 0 0 0
394 4 1 17.127608177575592 6.6232723940852685 52.771083243067636 0 0 0
7734 52 1 13.505381965679199 2.9480400496912655 52.60241532810926 0 0 0
9641 64 1 8.430913825259351 24.16293196030755 48.151000098483316 0 0 0
8584 30 1 8.720376596781696 12.278799263685512 52.916203799022874 0 0 0
9030 61 1 2.65690996897639 19.479915149446477 47.316521241802675 0 0 0
7813 46 1 4.4434283703852175 4.990176600726004 49.26266809095647 0 0 0
7814 46 1 5.569159169406993 5.147082393462061 50.226666508295494 0 0 0
8351 54 1 2.4801240259867168 16.60782677871751 40.93346984893793 0 0 0
4157 29 1 18.606839750835192 17.39168995429378 44.85050978054142 0 0 0
9033 61 1 5.111333082293501 18.680146072088135 50.023351779390794 0 0 0
1048 52 1 3.967528073750745 14.862653977767627 38.43778712843287 0 0 0
9643 64 1 10.02629129478115 22.943886857213716 49.65951499135925 0 0 0
8131 53 1 1.0676457138369113 12.04105929433722 45.67377241296913 0 0 0
5997 25 1 4.0617383012333566 10.958191660444294 53.12425094406774 0 0 0
2883 17 1 18.304248771442964 4.6518717212238245 44.576454928961276 0 0 0
8804 59 1 11.899639862798464 15.557219652526344 52.13563136644447 0 0 0
8365 54 1 12.06405983771574 11.321338393927817 52.831010238842644 0 0 0
8800 59 1 8.82809136199819 15.657576584568229 49.15643210382663 0 0 0
9028 61 1 1.0362059249190798 20.783191754235812 45.89934493573766 0 0 0
8045 53 1 4.761486738773026 10.172155135955691 44.590392677330826 0 0 0
8046 53 1 5.601191099117342 8.97253026135881 44.710631285354985 0 0 0
8047 53 1 6.53191578434753 8.810138429964493 45.87138074619475 0 0 0