LAMMPS data file via write_data, version 23 Jun 2022, timestep = 11112117

8487 atoms
2 atom types
8471 bonds
3 bond types
8455 angles
3 angle types
8439 dihedrals
3 dihedral types

0 36.89775039 xlo xhi
0 26.67072 ylo yhi
21.11799644052121 215.6336079594779 zlo zhi
0 6.119884674733112 0 xy xz yz

Masses

1 14
2 15

Pair Coeffs # lj/cut/omp

1 0.0914 3.95
2 0.1947 3.75

Bond Coeffs # harmonic/omp

1 449.5 1.53
2 449.5 1.53
3 449.5 1.53

Angle Coeffs # harmonic/omp

1 62.0967 114
2 62.0967 114
3 62.0967 114

Dihedral Coeffs # opls/omp

1 1.411 -0.271 3.145 0
2 1.411 -0.271 3.145 0
3 1.411 -0.271 3.145 0

Atoms # molecular

7385 56 1 1.3323574644105671 9.038993892922964 33.18940761839062 1 0 0
7682 60 1 1.525643349380681 12.966146186440312 32.350434503308755 1 0 0
2549 18 1 13.559589794348664 0.2934084112069833 23.100256774874023 0 0 0
8004 43 1 0.5335176136964095 17.67289799456777 30.086469708573496 1 0 0
5 25 1 7.876223863627964 26.297021011518215 27.51866265184913 0 -1 0
6 25 1 8.35595557865355 0.44813656336419244 28.749602880468384 0 0 0
7 25 1 9.297256593469202 26.27662157607494 29.63396416498035 0 -1 0
8 25 1 9.834609536152417 0.47764627122471653 30.81992566898505 0 0 0
2300 14 1 5.922488486231991 21.544170132542995 25.237150054633332 1 0 1
309 2 1 15.374565717205709 4.84585421016039 39.58254413638214 0 0 0
8214 63 1 6.571990135009149 20.19338093982548 31.940502931957802 1 0 1
253 57 1 7.656826742914957 2.683637570185856 22.025845263799955 0 0 1
6867 53 1 3.356219299076367 1.577869022739979 27.190919968493674 0 0 0
258 57 1 11.877435809531454 2.1065507024234416 26.888023621123498 0 0 1
2086 13 1 13.989851036254564 20.139258966487702 30.449106385975732 0 0 0
8246 63 1 2.2153254609748636 20.118799755842513 27.270743500793003 1 0 1
6242 48 1 2.4378459760989752 19.996366053633338 40.4356358300372 0 0 0
8467 64 1 6.0712960185720455 24.55331716512872 32.30878260119324 0 0 0
8217 63 1 8.100016835548823 20.218692185922677 35.46830247938444 1 0 1
8466 64 1 5.995442885301771 24.686876011582953 30.79603081375795 0 0 0
990 6 1 18.81620860394472 11.499396225590953 38.90749779276831 0 0 0
521 2 1 6.734578487200905 4.891754683711764 26.852958479661794 0 0 0
3904 13 1 15.864822204393057 17.743232851376874 25.539363493934005 0 0 0
3080 21 1 18.252086557246624 7.0053622233541875 23.1361932863674 0 0 0
8300 11 1 4.275891685277759 22.281271673043594 36.82555670471141 0 0 0
3432 24 1 17.80757388584092 11.563738752051979 22.36543234104806 0 0 1
259 57 1 12.044910771089517 2.677485175825344 28.270662970183363 0 0 1
263 1 1 18.61489316415637 1.5801103305754378 37.60636175660902 0 0 0
5935 44 1 1.455013344570196 15.470234465670734 38.876382088963204 1 0 0
720 4 1 8.988532744586308 7.016005016718993 23.791330238654346 1 0 1
6878 53 1 10.101378469850077 2.376611396031041 39.33351572030068 0 0 0
2993 19 1 18.068476260973515 4.850164423711654 29.0101960159315 0 0 0
4198 22 1 18.04414269652794 21.992917965423803 30.5569137312298 0 0 0
8471 64 1 8.884708085693159 24.37578491627979 36.535452857774814 0 0 0
2306 14 1 10.446816663304467 21.62909495965611 31.47741901781477 0 0 1
256 57 1 10.304108353060368 2.004405826121698 24.733943909266618 0 0 1
3900 13 1 12.660095925054376 18.321061041437975 21.61744040211143 0 0 0
733 4 1 18.146330549659563 6.041056937927361 37.39371322623155 0 0 1
6879 53 1 11.324429636485212 1.8919893600125226 40.12011677876039 0 0 0
297 1 1 16.203130143758738 2.5257726138060153 34.519429939631465 0 0 0
298 1 1 17.397350207145337 1.9834288966846765 35.34920503816851 0 0 0
299 2 1 8.066248215262535 4.976703173030232 29.1188521011364 0 0 0
300 2 1 8.732554891692038 4.104712651208337 30.262239680873982 0 0 0
301 2 1 9.817038664763537 4.843445424980179 30.985248808502337 0 0 0
302 2 1 10.33217611058559 4.038287665212605 32.13908602084264 0 0 0
303 2 1 11.515603123111575 4.630342212759822 32.844326773315714 0 0 0
517 2 1 3.932366505764846 4.649250229564926 22.539448138677717 0 0 0
7390 56 1 5.474585956338681 9.11867869496813 38.05406680641569 0 0 0
754 9 1 12.66072769734615 8.641894368244817 36.285337965167244 0 0 0
7088 30 1 2.4929303354335715 4.047799732459618 33.959510322165016 0 0 0
2309 17 1 12.183022471552752 22.506758983259353 34.830853269161274 0 0 0
719 4 1 8.742172070655162 6.46080258002415 22.39697188241914 1 0 1
2555 18 1 17.705967289819217 0.5435612746319112 29.407321637438578 0 0 0
7943 62 1 7.506266366514219 15.067614795774597 34.62665587144384 0 0 0
3902 13 1 14.36386644482384 18.00111245473928 23.468628465040652 0 0 0
1639 9 1 8.726176031552756 15.638361686405073 23.028880993245007 0 0 0
1428 9 1 18.307202839112094 15.461002917808553 36.39215314084616 0 0 0
2550 18 1 14.1766343929366 26.094977699118402 24.22259264318263 0 -1 0
2323 17 1 15.524552890562024 24.816686102477092 32.46286521572026 0 0 0
1643 10 1 6.34226274000945 18.136114794737562 26.187044094394132 0 0 0
520 2 1 6.005942961819885 4.1177286067545165 25.815785548610076 0 0 0
7164 6 1 3.765657261310614 6.465067144190317 29.39492775690325 0 0 0
8247 63 1 3.561785855372786 20.080580199346162 27.767807288512145 1 0 1
3023 19 1 12.652442071282854 4.231379898172284 21.88999343577864 0 0 0
726 4 1 13.460821341575912 6.797580236076266 29.78451978163259 1 0 1
6875 53 1 8.895267625460917 2.0599612581215467 35.707969470565445 0 0 0
6756 62 1 3.5572790504921494 0.4457518948807353 34.58116062390992 0 0 0
2537 17 1 8.542680876237005 24.86934830692917 21.7124563355468 0 0 0
7093 30 1 5.982453337315748 5.056298732098866 39.190717499086155 0 0 0
2552 18 1 15.73903229761421 26.130444969912013 26.243235837788756 0 -1 0
4 25 1 7.034958552691896 0.46276845898334085 26.556730053906566 0 0 0
8298 11 1 3.2194080556348217 22.100288303354112 34.6172873822526 0 0 0
965 9 1 3.6653635099927806 9.010204204673899 22.530906738544147 0 0 0
2551 18 1 14.79438589259293 0.272055447231944 25.37789602314242 0 0 0
7688 60 1 5.802438495839101 12.78418673875469 38.61236303485275 0 0 0
6755 62 1 2.1046252283424023 0.2542654610773939 33.92747008924087 0 0 0
7936 62 1 2.6444380218433237 16.222853919541258 27.300994664547463 0 0 0
1203 15 1 13.72060437970003 13.681982564068253 36.95065360812204 0 0 0
8474 64 1 11.527123434983038 24.747778712721402 39.4389281354816 0 0 0
982 6 1 13.579325667170805 11.16499092184337 30.294559890819627 0 0 0
3445 27 1 12.427463176510843 12.970648720540973 22.150963182232594 0 0 0
7684 60 1 2.9458462721601792 12.97347642826216 34.386965771928026 1 0 0
747 9 1 8.39114208270766 9.060876876445297 28.583824666640755 0 0 0
748 9 1 8.51792254330655 8.575330432563876 29.973212015653473 0 0 0
749 9 1 9.902545671442471 8.670049043672586 30.498832009199987 0 0 0
750 9 1 10.015567639773447 8.768987824099572 32.04611090215866 0 0 0
751 9 1 11.461513561518947 8.698358267645798 32.525756950880535 0 0 0
752 9 1 11.494672513165417 8.748557074389216 34.073746373048095 0 0 0
753 9 1 12.852627545060022 8.72159909609253 34.757968962630216 0 0 0
13 25 1 13.53265223275352 26.252401523272702 35.95487306714727 0 -1 0
722 4 1 10.602623638791675 6.775573345340271 25.802224313297422 1 0 1
4227 22 1 12.469599483388498 22.196247229939246 22.253393509311827 0 0 0
6754 62 1 2.058113198964585 0.5875038139097027 32.38985366361622 0 0 0
8250 63 1 5.078236593206096 20.01321619329029 31.431487496505852 1 0 1
8296 11 1 1.7215166071835104 21.83985572932511 32.56566624018579 1 0 0
7946 62 1 9.491648515433292 16.25055572489824 37.69197843353926 0 0 0
7653 58 1 11.134429786100792 11.45768821457828 39.91789235898541 0 0 0
8472 64 1 10.137015958937974 24.873648902327066 37.20975209442504 0 0 0
1412 15 1 2.745418329700495 12.686277392523413 21.568002055253956 0 0 0
6868 53 1 3.515305835726048 2.145090223758404 28.548966143112573 0 0 0
966 9 1 4.33489535427735 8.206396987144025 23.689385891104777 0 0 0
967 9 1 5.269017815524609 9.123966102359251 24.507307482971584 0 0 0
968 9 1 5.736778067383178 8.462718743256804 25.851643901988837 0 0 0
969 9 1 7.0282692099723105 9.122685425438606 26.44971057003355 0 0 0
970 9 1 7.180059583637243 8.575933554025312 27.839732484271803 0 0 0
2085 5 1 13.816007226330283 19.533337232154164 29.05192528042648 0 0 1
6874 53 1 7.5799417583558535 2.374880614139089 35.00566178044132 0 0 0
2079 5 1 9.203501247986852 19.975455369922894 22.918680337689736 0 0 1
1864 10 1 4.041676675279976 17.470510326753587 23.145356486303626 0 0 0
4193 22 1 15.206654351925302 22.11888357962603 24.899679154228778 0 0 0
976 6 1 9.067842823543467 11.661100642469965 24.040721476814973 0 0 0
977 6 1 10.000133692790905 10.878019430888715 24.910703576964995 0 0 0
978 6 1 10.387282692395784 11.468772256862634 26.21746775672055 0 0 0
979 6 1 11.69557412075674 10.917869055111478 26.814512253643407 0 0 0
988 6 1 17.79024985309447 11.708778678202114 36.59793700841317 0 0 0
7638 58 1 0.26086882014740664 10.296236692359676 24.24172558500787 0 0 0
3148 23 1 16.8820587258747 9.597736349914076 27.36407166731412 0 0 0
987 6 1 17.53434807633138 11.010192425841115 35.26615642761912 0 0 0
7647 58 1 6.9366878565187475 11.352767995629911 33.4026251368511 0 0 0
2548 18 1 13.028303792347632 26.23047008392153 21.84376247835112 0 -1 0
8465 64 1 4.558051669104581 24.473718658092306 30.251276979458346 0 0 0
721 4 1 10.401640261928442 6.69142864963357 24.315642051180713 1 0 1
4187 49 1 18.52772520069841 20.058031105325867 24.326846713051047 0 0 1
1195 15 1 7.98357099409754 13.484944274923683 28.761548433689736 0 0 0
1196 15 1 8.71203220842089 12.599348871315014 29.818506437159762 0 0 0
1197 15 1 9.844840998142924 13.386370119766898 30.532008658312584 0 0 0
1198 15 1 10.360285443620475 12.694018157099093 31.760383013017737 0 0 0
1199 15 1 11.57519379576677 13.464182811263507 32.36284860360851 0 0 0
1200 15 1 11.805817507469024 12.802088710896312 33.6947090959529 0 0 0
2990 19 1 15.353690199917956 4.302584861347598 26.056308520565693 0 0 0
3079 21 1 17.74785035604808 6.2640194469168105 21.860157465152948 0 0 0
2080 5 1 9.459382865170598 20.383140175756363 24.37528092145825 0 0 1
8301 11 1 5.1118391142314 23.102870685316525 37.83197359832211 0 0 0
8302 11 1 5.712183465741966 22.163228667730873 38.86029222148543 0 0 0
296 1 1 15.755198383721304 1.810291289886404 33.261664402733615 0 0 0
5627 56 1 0.8824462012057016 10.824509797402209 38.7022998360668 1 0 0
731 4 1 17.329551944560688 6.1185319243057705 34.91370042712836 1 0 1
6863 53 1 0.32761968834613664 1.531843572621816 23.266834506782146 0 0 0
7650 58 1 8.773835463260854 10.51460313511248 36.775292752774384 0 0 0
8012 43 1 6.103952533043864 17.855740438107336 38.5207726471146 0 0 0
4194 22 1 15.311675953524782 21.940871120452165 26.378055405242566 0 0 0
7091 30 1 4.494890523472167 5.054119044863913 37.07163233732092 0 0 0
1415 15 1 5.047376399811518 13.671235919398447 24.54829301117977 0 0 0
1416 15 1 5.874692021008857 12.861544961587567 25.470507269381734 0 0 0
1417 15 1 6.585359794463089 13.693929172731663 26.575558183363317 0 0 0
1418 15 1 7.174019315321274 12.750600018332603 27.64228609987226 0 0 0
1419 9 1 11.291072094319642 15.243472667168522 27.421003838176045 0 0 0
1420 9 1 12.724045560243532 15.226246440205363 27.936874529514846 0 0 0
1421 9 1 12.77808350219257 15.56974090931938 29.44428893659067 0 0 0
1422 9 1 14.14169032684765 15.344781120053028 30.10774091365626 0 0 0
1423 9 1 14.203763383015556 15.317731242995809 31.567979315200887 0 0 0
1424 9 1 15.5665315137254 15.113194223161916 32.23545290529949 0 0 0
1425 9 1 15.546065750937071 15.489543929001027 33.730028173711986 0 0 0
1426 9 1 16.893457643399163 15.18899592730451 34.40435410122355 0 0 0
4197 22 1 17.731249109008182 22.695535530393776 29.262538298604838 0 0 0
7087 30 1 1.6968814332826128 4.833379384311191 32.914922837054014 0 0 0
518 2 1 4.4896565131993755 4.1295659661596416 23.891341094065403 0 0 0
7161 6 1 2.040126084906054 6.231886104428745 26.005502978811485 0 0 0
7689 60 1 6.40853798509467 13.75344553024957 39.61644121673261 0 0 0
1640 9 1 10.092988359451603 15.6132230107983 23.708057231801604 0 0 0
223 25 1 3.6072215010923854 25.790738628524966 21.538938362926896 0 -1 0
7939 62 1 4.571454338380904 15.096003359940037 30.57655055091444 0 0 0
1641 9 1 9.959390413363053 15.797135645954176 25.25928484058471 0 0 0
1642 9 1 11.297694076795853 15.441137172766599 25.905913263318446 0 0 0
1202 15 1 12.784497498977474 12.849155388451603 36.06803194580207 0 0 0
306 2 1 13.544152570782028 4.130235319400253 36.132246965109005 0 0 0
1645 10 1 8.010502985476517 17.983588080130982 28.114885960088444 0 0 0
1646 10 1 8.353098193308774 17.443568409605735 29.483483202416252 0 0 0
1647 10 1 9.69758790931192 17.909878716163497 30.06852345342524 0 0 0
1648 10 1 9.858850558617144 17.333290882280956 31.439352466018946 0 0 0
1649 10 1 11.083392483315242 17.641646132740274 32.18583538329992 0 0 0
1650 10 1 11.218165303580793 17.207283460576733 33.642646710759166 0 0 0
1651 10 1 12.368356790365455 17.9429183611555 34.39390384269679 0 0 0
8008 43 1 3.2548057214748036 17.97862364348689 34.221514308989 0 0 0
732 4 1 17.551702286475063 6.818606624028338 36.23636911704245 0 0 1
295 1 1 15.092965397914734 2.666853760380919 32.17807269856337 0 0 0
8460 64 1 1.8005768296799753 24.17831392485255 24.470062162872424 0 0 0
7944 62 1 7.777471929354564 15.809363301681106 35.87846535865139 0 0 0
2304 14 1 9.126964553442413 21.67109354449037 29.23823939199637 0 0 1
2087 13 1 15.05259890552699 19.43891193207846 31.347688432284052 0 0 0
15 25 1 15.06347857971278 26.227834001170496 38.06213772327128 0 -1 0
1866 10 1 5.263913676176486 17.409392019414167 25.323927410395143 0 0 0
8299 11 1 3.99644611627847 23.07777824982962 35.568549389726996 0 0 0
2301 14 1 6.623307386248932 22.372304996731977 26.270526901861842 1 0 1
8458 64 1 0.14407198896668308 23.80504557764024 22.46402930854502 0 0 0
257 57 1 10.604410092653568 2.5665619801195882 26.08656116549368 0 0 1
3907 13 1 17.104962789401817 17.19854308115158 29.267695286583177 0 0 0
1867 13 1 17.8444289323103 19.534021174872073 35.78300152557392 0 0 0
1868 13 1 17.87119685139906 20.118042129537027 37.17449891542483 0 0 0
989 6 1 18.87056916242293 11.044821638150749 37.46663852606841 0 0 0
723 4 1 11.993851046925318 6.280919013010505 26.16341123439393 1 0 1
262 1 1 17.625227493358338 2.3768167755416507 36.81045885921502 0 0 0
8243 63 1 0.7948589059727207 20.17703970219284 23.685368100814053 1 0 1
3451 27 1 17.08728494211604 12.980014276973625 28.316867502486662 0 0 0
294 1 1 14.701140614287924 1.8691875383674053 30.938764911617795 0 0 0
1655 10 1 14.83477547043732 18.091537104627058 38.729854263343924 0 0 0
2303 14 1 8.11328658782725 22.465307828866187 28.36459262850955 1 0 1
8219 63 1 9.317910062588435 20.287510962919864 37.69067567583514 1 0 1
8215 63 1 6.6010010531059455 20.26154250075134 33.486479155388935 1 0 1
7686 60 1 4.412560178016745 12.854648150234027 36.40802921737006 0 0 0
7933 62 1 0.6179557459160073 15.46418256647129 24.08109460219691 1 0 0
7166 6 1 5.080305711825904 6.677527255969748 31.546317921109996 0 0 0
254 57 1 8.454123953818373 1.9223048195074648 23.03707557715655 0 0 1
2089 13 1 16.53268318346282 19.378478326010175 33.472558714009196 0 0 0
2090 13 1 16.62568022727558 19.859364601979724 34.89406067691741 0 0 0
2297 14 1 4.224402745310635 22.103833446262215 21.78011235582181 1 0 1
6872 53 1 6.169491176912593 2.2307318645169394 32.92431845352342 0 0 0
2987 19 1 14.03322671524678 4.121660525614476 22.42567974494941 0 0 0
3150 23 1 18.249998695171364 9.615315107089618 29.44178162811197 0 0 0
725 4 1 13.417210061114757 6.2571229795467715 28.369403982185975 1 0 1
7644 58 1 4.298375321427555 10.593688411090316 30.667921232442716 0 0 0
2326 17 1 17.467946648588438 24.061535141655394 35.85435905933205 0 0 0
7935 62 1 1.8752774600592381 15.518876817887286 26.192507691704385 1 0 0
3453 27 1 18.681718851986165 12.96736768067722 30.348414396957192 0 0 0
8469 64 1 7.51395934293692 24.565384078437482 34.3941159959363 0 0 0
2083 5 1 12.289728135032412 19.350231034374886 26.927479554736486 0 0 1
6543 39 1 0.6807716112699344 24.87544466264956 38.336777368825736 0 0 0
2299 14 1 5.405409159392637 22.325993029526433 24.00066034237919 1 0 1
8297 11 1 2.3659489854933935 22.81696795483355 33.57289994034656 1 0 0
7171 6 1 9.283776916537766 6.504044378429374 36.316074194351785 0 0 0
7170 6 1 7.892245267801324 6.791912654654896 35.77528973775013 0 0 0
4730 35 1 0.545009951810548 2.8690785047915006 37.813485235996694 1 0 0
3905 13 1 16.040078851743697 17.13815393634515 26.925870915028383 0 0 0
2310 17 1 13.004157667376324 21.864325061513217 35.84160191979088 0 0 0
2311 17 1 13.53404606386448 22.755358767035563 36.93818288625792 0 0 0
2312 17 1 14.366752299189601 21.929932960654863 38.01054873492153 0 0 0
7392 56 1 6.896822027941123 9.14319999597212 40.23566748504773 0 0 0
4265 33 1 18.07072057549297 24.621928767068287 22.921112075052836 0 0 0
7641 58 1 2.3254480122278496 11.419421829867288 27.310400383545513 0 0 0
2316 17 1 10.090388751158367 23.99289530477167 25.294705848425235 0 0 0
2317 17 1 11.058799900854828 24.81329993031651 26.166241973130287 0 0 0
2318 17 1 11.737983976071908 24.068444652968722 27.30322534083721 0 0 0
2319 17 1 12.611038952815388 24.89969832154818 28.266202969998293 0 0 0
2320 17 1 13.073836639093871 24.123383267400982 29.50615989092664 0 0 0
2321 17 1 14.058383509213144 24.90137181536255 30.37283721096037 0 0 0
2322 17 1 14.52531315719173 24.108436577700008 31.608640300923213 0 0 0
2 25 1 5.351607197636803 0.18180524102390386 24.72068945054737 0 0 0
8462 64 1 3.106101101259471 23.989090287215998 26.649565701811188 0 0 0
1638 9 1 8.618735408614763 15.725824483748248 21.504244249971194 0 0 0
519 2 1 5.434842069591172 4.984103283038096 24.730825982907568 0 0 0
1206 15 1 15.78343309574069 12.856861108813511 40.20939486796858 0 0 0
2994 19 1 18.27540597288282 4.450623624339358 30.438477487034014 0 0 0
1204 15 1 14.43121573543262 12.899326552619165 38.05314599726985 0 0 0
6869 53 1 4.68460907091962 1.5723269757795229 29.351499987600853 0 0 0
983 6 1 14.885513925621302 10.67806885833936 30.85223994582389 0 0 0
8009 43 1 3.371397083097896 17.820443425155702 35.761539233306074 0 0 0
4488 33 1 17.673769225829762 23.957057015513303 21.63707082911322 0 0 0
3909 13 1 18.41522429962955 17.086459985028863 31.418775291951377 0 0 0
2538 17 1 8.752578927350838 24.130057448375524 23.08434045438314 0 0 0
7387 56 1 2.7070293218564583 8.660154921014803 35.39780502516528 1 0 0
1644 10 1 6.638654909776907 17.504713942343038 27.53410656415319 0 0 0
1652 10 1 12.385116279430575 17.60993041907393 35.86886800796653 0 0 0
3446 27 1 13.870924307666705 13.45729736715622 22.688126703034104 0 0 0
7092 30 1 5.085448592098118 4.314797213335459 38.21624877644042 0 0 0
7642 58 1 2.938109214217276 10.664784799670842 28.470363903160262 0 0 0
1 25 1 4.835520409105919 25.819467564910433 23.743633080427966 0 -1 0
2315 17 1 9.981201606216656 24.613118066485345 23.92418476907487 0 0 0
8473 64 1 10.2029941658036 24.53883446053719 38.65899568002712 0 0 0
728 4 1 14.795853474456798 6.829492430271541 31.967417849192294 1 0 1
2078 5 1 7.864042609389721 20.236900992510133 22.297855952746506 0 0 1
522 2 1 7.546784099415242 4.139219798642227 27.899433272578783 0 0 0
7934 62 1 1.2789687309865025 16.388709470762237 25.107058064605095 1 0 0
3903 13 1 14.606937790524825 17.30569577833514 24.818053507645566 0 0 0
2308 17 1 11.59448017139728 21.569556318972648 33.80942980749163 0 0 0
2298 14 1 4.571256489818623 21.403239823407624 23.107779827790235 1 0 1
8303 11 1 6.523094390513042 22.895027587896635 39.89781626330608 0 0 0
7174 6 1 10.814881063170043 6.8804755205310695 39.965674060107524 0 0 0
1653 10 1 13.628927058912213 17.940831589870925 36.58733110516336 0 0 0
7648 58 1 7.560137524625276 10.560470869025721 34.51306684127515 0 0 0
2084 5 1 12.534137963033952 19.981441044722835 28.29489980008336 0 0 1
7937 62 1 2.9993325356044087 15.212709171807521 28.451930069446796 0 0 0
7646 58 1 5.857209161547219 10.571326673205107 32.72074853657146 0 0 0
7643 58 1 3.7350802881514453 11.403445322177324 29.493467948264282 0 0 0
7165 6 1 4.694341577613023 5.729144748088628 30.34676959773553 0 0 0
3147 23 1 15.868418135448774 8.783570151236354 26.593843094637926 0 0 0
4192 22 1 13.745188526776117 21.937669627402308 24.468747633486693 0 0 0
3368 23 1 13.74280586955161 9.20623209840406 23.30924136620366 0 0 0
1654 10 1 13.551176857880316 17.683999172720803 38.076224800071785 0 0 0
7388 56 1 4.093860198096437 8.790508602553915 36.00247502485207 0 0 0
6873 53 1 7.499395116701108 1.8328019442908294 33.60473511955088 0 0 0
7089 30 1 2.907802449972941 4.885316795906967 35.12026498546496 0 0 0
1865 10 1 5.106829642713461 18.09250741787245 23.991030547569274 0 0 0
2307 14 1 10.97527096924828 22.35766459870016 32.67901201936955 0 0 1
3370 23 1 15.21341628151873 9.308390778090807 25.314931713570587 0 0 0
6544 39 1 0.6559616491543339 24.96330457635825 39.83106122486928 0 0 0
1414 15 1 4.288695909165655 12.805509552916494 23.4746526648251 0 0 0
3 25 1 6.086691776439938 26.18234595528316 25.8051967069084 0 -1 0
7683 60 1 1.9156093953219755 13.699578421709944 33.61534586895365 1 0 0
6760 62 1 6.373284947337435 0.01681160729790909 38.84477480606872 0 0 0
7681 60 1 0.40694843412426707 13.737004304958965 31.64078674584561 1 0 0
4195 22 1 16.708660727332656 22.20147908685421 26.951359317021375 0 0 0
2327 17 1 18.40388428972824 24.89759492400723 36.69392011328181 0 0 0
1413 15 1 3.4088243646267093 13.647054385097299 22.5078017854313 0 0 0
727 4 1 14.67590506160749 6.294038227416852 30.55540770136794 1 0 1
6759 62 1 4.97707176363932 0.11315859239572393 38.216251190295495 0 0 0
4732 35 1 1.6045355468074076 2.718869041644449 40.102896069716884 1 0 0
1201 15 1 12.523396627908427 13.585639553520245 34.74650387401891 0 0 0
7938 62 1 3.739784605088829 15.91456935228082 29.579030631401594 0 0 0
2081 5 1 10.707464803232927 19.795039389862925 24.968216016373113 0 0 1
8007 43 1 1.8284414136821814 17.902876748861402 33.67378220019966 0 0 0
718 4 1 7.345352607439833 6.723163868494221 21.82543070004818 1 0 1
8011 43 1 4.748602931952116 18.069889826764616 37.822093931015026 0 0 0
7090 30 1 3.7724406602877347 4.131284093737193 36.13944229517533 0 0 0
7386 56 1 2.688158383596237 9.037601790979613 33.90126774315678 1 0 0
2988 19 1 14.139587773632218 4.015358275770168 23.95548002504726 0 0 0
10 25 1 11.255806164307206 0.42091235374351854 32.968449923682186 0 0 0
6870 53 1 4.986282299226524 2.2338754847396607 30.683805186707545 0 0 0
2324 17 1 15.791941033702493 24.15867533214252 33.78608512476963 0 0 0
6758 62 1 4.856506703300733 0.40888199053578667 36.750542328905226 0 0 0
7162 6 1 2.303892497561194 6.650629069055406 27.437306463565484 0 0 0
8220 63 1 10.683619220028676 20.30252984978519 38.3584393152896 1 0 1
7163 6 1 3.6091587900112403 5.974458062289486 27.96104389494766 0 0 0
1863 10 1 4.155766347392367 17.58929787975992 21.655935780848054 0 0 0
985 6 1 16.47654727449137 10.95589660985583 32.94508105935867 0 0 0
4185 49 1 17.392943712256248 19.866325796323803 22.004046803637287 0 0 1
2313 17 1 15.125217426042825 22.750684871775988 38.97137861423835 0 0 0
307 2 1 14.262940436531292 4.868387860507937 37.22214002023786 0 0 0
3448 27 1 15.450796834428902 13.479938247293992 24.809287329433076 0 0 0
4731 35 1 1.473441409660476 2.0610826907158093 38.73407029205525 1 0 0
986 6 1 16.47183064237657 11.702177224961076 34.35164557567392 0 0 0
7389 56 1 4.1494376204425025 8.432206703828003 37.483381356881665 0 0 0
7649 58 1 8.302607569761609 11.390028221757621 35.598863094373904 0 0 0
8461 64 1 1.6950236884714416 23.941071363258725 25.99913758000637 0 0 0
729 4 1 16.073662477571094 6.366264730433087 32.71285024124031 1 0 1
756 9 1 14.06900788465444 9.025963683665857 38.613372466930095 0 0 0
4191 22 1 13.61257012821835 22.68114426749579 23.158875269981635 0 0 0
2088 13 1 15.487066703333397 20.08754361046492 32.65717100068641 0 0 0
255 57 1 9.204897710759534 2.817242323489013 23.984330084873786 0 0 1
8468 64 1 7.45499986187343 24.64696967552963 32.871402766796095 0 0 0
2302 14 1 7.568610928433245 21.611788188202986 27.22680214190741 1 0 1
7651 58 1 9.586076993123529 11.352490066069262 37.76810450491686 0 0 0
7942 62 1 6.691238043321059 15.953094930685728 33.64507718184104 0 0 0
2991 19 1 16.62016615820033 4.8080071930014885 26.87199401070382 0 0 0
8470 64 1 8.90465968037212 24.613662946207835 35.021527353376 0 0 0
11 25 1 11.933358067777244 26.318200015498633 34.036307244069356 0 -1 0
730 4 1 16.32138039652341 6.925230077404842 34.08876064428732 1 0 1
2314 17 1 15.671606775363685 22.029848708549046 40.186243642929504 0 0 0
1427 9 1 16.90687678106207 15.23876294480863 35.89415366521994 0 0 0
7940 62 1 5.240649416009034 15.984708442417718 31.56069461218707 0 0 0
7947 62 1 10.325855831178348 15.417618858111444 38.63967636339494 0 0 0
260 57 1 13.287186608760049 2.1644592999053716 28.83569302245695 0 0 1
980 6 1 11.96108503059453 11.361346633386171 28.27854927185711 0 0 0
6876 53 1 9.200358126699065 2.9525240493417213 36.914277241084285 0 0 0
7391 56 1 5.854792433209691 8.486130880594446 39.3996907321897 0 0 0
6865 53 1 1.6019852127249312 1.6432717994065569 25.360455794296684 0 0 0
8249 63 1 5.018731778548566 20.060104034911728 29.866038110223787 1 0 1
7086 30 1 1.2820872531111909 3.933165413343947 31.77979912154612 0 0 0
2305 14 1 9.772993348995595 22.49970723268438 30.383719701744695 0 0 1
6753 62 1 0.805090212712094 0.18461617420161852 31.735378580930252 0 0 0
8218 63 1 9.440438198079876 20.471109910311647 36.1885620759116 1 0 1
7094 30 1 6.539606287122924 4.033116899790166 40.1482517585283 0 0 0
7640 58 1 1.6679554840453936 10.479196051324866 26.333614491145653 0 0 0
7168 6 1 6.504834325258506 6.781729635553491 33.618993749867954 0 0 0
7948 62 1 10.79062784476703 16.050286089713435 39.943901423907064 0 0 0
8010 43 1 4.749370549735693 17.917819271423873 36.28229116766963 0 0 0
224 25 1 4.218963966362066 26.622527805865335 22.62693622038648 0 -1 0
8251 53 1 10.749423186234148 20.34138445193262 39.91519888100715 1 0 0
3369 23 1 14.291719532356371 8.417712838014971 24.44677130858722 0 0 0
2553 18 1 16.416379607957136 0.29986351155551927 27.300082298984396 0 0 0
3447 27 1 14.15324031242464 12.998371079527647 24.17763091084214 0 0 0
7687 60 1 4.885089905536028 13.557539278444635 37.64318279036055 0 0 0
8216 63 1 8.060104235192528 20.126827932159276 33.94168481913276 1 0 1
975 6 1 8.73617318309946 10.920675421864441 22.763197216634726 0 0 0
981 6 1 13.258068402735447 10.770802986458243 28.86662357557745 0 0 0
3449 27 1 15.727756078973492 12.879897936834261 26.184348168065547 0 0 0
7652 58 1 10.172194146994803 10.66307634130651 39.04281307967244 0 0 0
7945 62 1 8.813222218797225 15.224018575641075 36.80826898558226 0 0 0
2554 18 1 17.140020145708103 26.256586321428497 28.396650509699082 0 -1 0
6241 48 1 1.6985280086407113 20.901786576748847 39.438523795948825 0 0 0
8464 64 1 4.443956734834073 24.48835511710135 28.68800188576591 0 0 0
974 6 1 7.469215450592505 11.345558479342701 22.01468146536045 0 0 0
8248 63 1 3.6764943102113676 20.34767246841923 29.288072992788628 1 0 1
1656 10 1 15.059050505497781 17.512781408677395 40.11592847700073 0 0 0
7384 56 1 1.3640725547240757 8.877655510179109 31.658266572008753 1 0 0
261 57 1 13.637172307985635 2.6609384967877094 30.234142838272614 0 0 1
7173 6 1 10.771111189688794 6.344570236542253 38.46975843741055 0 0 0
3452 27 1 18.113239181655267 13.722406020902582 29.12752522679625 0 0 0
1205 15 1 15.121488100169756 13.689580831995064 39.09317842976147 0 0 0
6871 53 1 6.170901178311841 1.7034146257536271 31.505669079304095 0 0 0
984 6 1 15.234579588572641 11.385543221077258 32.159391584313646 0 0 0
724 4 1 12.097885585039004 6.594642675738581 27.705154983295582 1 0 1
6866 53 1 2.2421786838284703 2.403425099189163 26.536600608280303 0 0 0
2989 19 1 15.502582623734193 4.227994291061294 24.561912744020187 0 0 0
3149 23 1 17.328631400924262 8.775761540610372 28.570573169694324 0 0 0
8459 64 1 0.3626596085334424 24.095567570685304 23.91382092522464 0 0 0
3901 13 1 13.135937956108194 17.44705142018994 22.755794325877876 0 0 0
264 1 1 18.925191829194812 2.2477656335013263 38.96197392172603 0 0 0
8013 43 1 6.2110156459626005 18.40052791127405 39.93502400679196 0 0 0
8463 64 1 3.056217342099401 24.288886026984738 28.178770343854858 0 0 0
16 25 1 15.284073163722423 0.33767334017671374 39.420596578012834 0 0 0
8245 63 1 2.210993143712615 19.96519122270309 25.75218156962208 1 0 1
7167 6 1 6.071188400671842 5.927278274207458 32.464839792762135 0 0 0
5628 56 1 2.0155569567311553 11.422851684619955 39.433209411084505 1 0 0
964 9 1 2.694746274411384 8.133366597639212 21.659996700990867 0 0 0
3367 16 1 12.888735985847564 8.43229094791686 22.269492709512864 0 0 1
516 2 1 3.0946828005468907 3.697529745137063 21.629638515957897 0 0 0
5936 44 1 1.946279096962944 16.305722808634528 40.06238546336252 1 0 0
14 25 1 14.09470607840959 0.3389897887149997 37.1822401283098 0 0 0
9 25 1 10.823826095924552 26.3673209296664 31.705591646509802 0 -1 0
7172 6 1 9.484688111976178 6.7620488422031135 37.797347585096986 0 0 0
4196 22 1 16.80640381475921 21.794812610136127 28.41178276293087 0 0 0
6757 62 1 3.494540946314467 0.4321185168091199 36.07913098578034 0 0 0
7685 60 1 3.4330609685298263 13.707558685934412 35.6262509487628 1 0 0
7941 62 1 6.079121825539135 15.12783554305436 32.527431911065065 0 0 0
17 25 1 16.14820443248051 26.26230764696341 40.36406131927924 0 -1 0
7645 58 1 5.22664603133404 11.38286512628401 31.56706350487012 0 0 0
2985 55 1 18.486261954188212 2.043758561488657 23.209111327837334 0 0 1
6864 53 1 0.7061954690882243 2.4495245337914953 24.467717193114844 0 0 0
3450 27 1 16.924514278200782 13.531591258991483 26.991383429619162 0 0 0
3669 28 1 17.423709180928473 15.365851317049751 21.721977154711 0 0 0
305 2 1 12.916532724658433 4.997728952380343 34.98727115031292 0 0 0
12 25 1 12.569704857624279 0.408240169207442 35.13353993284257 0 0 0
2992 19 1 16.739687663736774 4.379961838344499 28.336659037555833 0 0 0
304 2 1 11.952850314543774 4.109656723421162 34.23832983408249 0 0 0