LAMMPS data file via write_data, version 23 Jun 2022, timestep = 1000

8487 atoms
2 atom types
8471 bonds
3 bond types
8455 angles
3 angle types
8439 dihedrals
3 dihedral types

0 36.89775039 xlo xhi
0 26.67072 ylo yhi
0 236.7516044 zlo zhi
0 7.448720975 0 xy xz yz

Masses

1 14
2 15

Pair Coeffs # lj/cut/omp

1 0.0914 3.95
2 0.1947 3.75

Bond Coeffs # harmonic/omp

1 449.5 1.53
2 449.5 1.53
3 449.5 1.53

Angle Coeffs # harmonic/omp

1 62.0967 114
2 62.0967 114
3 62.0967 114

Dihedral Coeffs # opls/omp

1 1.411 -0.271 3.145 0
2 1.411 -0.271 3.145 0
3 1.411 -0.271 3.145 0

Atoms # molecular

1 2 1 7.47921174150728 1.2022523937408984 8.628964601392962 0 0 0
2 2 1 8.65960031373555 0.5261860124104816 9.382943862140781 0 0 0
3 2 1 8.703110624378688 1.1392127023502179 10.75793403665057 0 0 0
4 2 1 10.005431237503462 0.737685671159168 11.468509354630902 0 0 0
5 2 1 10.043560079943491 1.0353877126175277 12.972966332229628 0 0 0
6 2 1 11.400741489361861 0.9339067741849332 13.62472434396483 0 0 0
7 2 1 11.339041409415877 1.0245422868676508 15.173611179617698 0 0 0
8 2 1 12.698718109837348 0.7129925132545026 15.724925407351598 0 0 0
9 2 1 12.695646912907408 0.7356907079419975 17.237220630211755 0 0 0
10 2 1 14.056995688626374 0.5663700561562586 17.862459369221384 0 0 0
11 2 1 14.046357140141458 0.7375055389074678 19.340609601851703 0 0 0
12 2 1 15.430423079113892 0.9109365074928798 19.90105568552133 0 0 0
13 2 1 15.378027740289902 0.9313868273419836 21.419167614532313 0 0 0
14 2 1 16.713051345917954 1.259152060665257 22.083418584597652 0 0 0
15 2 1 16.8078532035655 0.9916786253206027 23.5836491072448 0 0 0
3404 3 1 12.35033107029485 14.243171133716165 0.2076969963924979 0 0 0
218 2 1 3.063068634410778 0.9290622328105855 0.724895953195362 0 0 0
219 2 1 3.2079103368104596 1.4126124025569724 2.1414946304975704 0 0 0
220 2 1 4.43663552632493 0.9583312856673383 2.8871978056181034 0 0 0
221 2 1 4.553648546303131 1.44169894453996 4.364366040354939 0 0 0
222 2 1 5.81555503431917 0.942847356197283 5.045245355470354 0 0 0
223 2 1 6.1413918055781345 1.5296695825875932 6.450181823389686 0 0 0
224 2 1 7.1089089378769055 0.6652157193935017 7.256945555449863 0 0 0
262 3 1 10.567692709143328 2.7120447844048683 5.619877677356156 0 0 0
263 3 1 11.214633509815213 3.479261085016614 6.775969670331764 0 0 0
264 3 1 11.971559633363396 2.716031017042015 7.826212574732233 0 0 0
265 3 1 12.759835526443025 3.647809017342088 8.720596726165429 0 0 0
266 3 1 13.312416260557452 2.995828570670358 9.976844785257757 0 0 0
267 3 1 14.244288805958156 3.8244296512245906 10.903506593973814 0 0 0
268 3 1 14.723180888872113 2.9500620795896686 12.06883254371435 0 0 0
269 3 1 15.647479672256187 3.5550097680892145 13.131255972312 0 0 0
270 3 1 15.851769114224268 2.5362685811155616 14.279237087759546 0 0 0
271 3 1 16.82784295393324 3.2082259167548153 15.219216653707871 0 0 0
272 3 1 17.22467003823 2.488670141044926 16.510868381708377 0 0 0
273 3 1 18.389313135682475 3.20631741122065 17.220930510392925 0 0 0
7295 54 1 7.9636431851652585 9.85000768542598 23.29960140186965 0 0 0
1916 23 1 18.539624803013446 25.44408080643386 17.799867175192574 0 0 0
295 3 1 7.473320112785517 2.7803215212295336 1.4027373528416507 0 0 0
296 3 1 8.197535725144443 3.5568491869006755 2.5035080178779077 0 0 0
297 3 1 9.001689292942322 2.7286932595942903 3.5570407903872914 0 0 0
298 3 1 9.760381521546064 3.542543718182558 4.584368380189327 0 0 0
299 5 1 7.837362163963823 5.782363849340328 8.874900001739913 0 0 0
300 5 1 9.178561558779881 5.464871038709509 9.581751227228027 0 0 0
301 5 1 9.216356029758895 5.816429238008189 11.072240587530153 0 0 0
302 5 1 10.336856390738381 5.146193554503235 11.801945299432905 0 0 0
303 5 1 10.51917008019645 5.4527737835806604 13.260962063281733 0 0 0
304 5 1 11.736395446535779 4.829519586020568 13.969922969645902 0 0 0
305 5 1 11.987968338399384 5.430611504993878 15.345841528488405 0 0 0
306 5 1 13.165436086153191 4.920654325792999 16.156831690124676 0 0 0
307 5 1 13.307665844790204 5.686208756599802 17.481486312511745 0 0 0
308 5 1 14.423871876004192 5.23671640855541 18.46887196773049 0 0 0
309 5 1 14.407172237719577 5.786751412592048 19.878529164116905 0 0 0
310 5 1 15.646231025272023 5.417144123398896 20.5659140244285 0 0 0
311 5 1 15.798271244504456 6.012671095451302 21.972573496211385 0 0 0
312 5 1 16.820198508234103 5.31629155119597 22.86253453488127 0 0 0
515 8 1 1.931627486635598 5.7033512364246315 0.5112755793287206 0 0 1
1262 14 1 3.076456851838305 14.059211454105931 0.3507293989682935 0 0 0
516 5 1 3.416776465161586 5.562779574810825 1.0831630248152042 0 0 0
517 5 1 3.533992555812084 5.421195711648262 2.6115715040541776 0 0 0
518 5 1 4.946965046754688 5.366768921793923 3.1868889193330414 0 0 0
519 5 1 5.02922490540242 5.28638392865394 4.728896882925473 0 0 0
520 5 1 6.404462744433378 5.466875569837294 5.258975052132455 0 0 0
521 5 1 6.458732673068035 5.56178411766732 6.790994496218725 0 0 0
522 5 1 7.8495131036862285 5.517206264722056 7.4070574437012295 0 0 0
560 30 1 11.081570846269313 7.450439188831563 6.571380973935452 0 0 0
561 30 1 12.279316114367743 8.000366793736415 7.352771848709353 0 0 0
562 30 1 12.436279416986324 7.302134621579047 8.754816415712531 0 0 0
563 30 1 13.631037357344633 7.789521246525167 9.516832833832407 0 0 0
564 30 1 13.657814357478024 7.22354098463102 10.950044509768665 0 0 0
565 30 1 14.978388493375025 7.660273514631083 11.699314303083064 0 0 0
566 30 1 14.873333011511086 7.310110116104654 13.174554013392802 0 0 0
567 30 1 16.199341203205545 7.632833907052337 13.875351074602179 0 0 0
568 30 1 16.22156317901354 7.4393393389299725 15.38218530416022 0 0 0
569 30 1 17.58154105851922 7.720107100817203 16.075923466583845 0 0 0
570 30 1 17.681241081758696 7.164617273777015 17.47482731266645 0 0 0
5870 49 1 0.6087032990273229 20.55310707941275 18.57215629307204 1 0 0
8062 61 1 4.709526599027879 23.881414832974535 18.567701010879397 0 0 0
592 30 1 7.790394020853569 8.195766579516745 1.1615351542792864 0 0 0
593 30 1 8.396016908540032 7.332939878712635 2.308180242534892 0 0 0
594 30 1 9.270665976830402 8.177313342670352 3.2557779777787843 0 0 0
595 30 1 9.316433994988143 7.588060564091385 4.648431164617181 0 0 0
596 30 1 10.445757268401353 8.28193486789788 5.431811849170145 0 0 0
597 51 1 7.188113277565525 10.116176633231593 8.107714824581304 0 0 0
598 51 1 8.478836205308994 9.712321787716983 8.838868286644658 0 0 0
599 51 1 8.583786393231602 10.095259489566345 10.356052950595545 0 0 0
600 51 1 9.876274439328979 9.573723165658057 11.057291308396342 0 0 0
601 51 1 10.054792629810297 10.11949719536228 12.48917742856537 0 0 0
602 51 1 11.199546489603362 9.417427848165888 13.222383941363432 0 0 0
603 51 1 11.640194589101503 10.04241794442918 14.547940250686219 0 0 0
604 51 1 12.903527778510568 9.528223466225425 15.194966888314077 0 0 0
605 51 1 12.913698157062758 9.982422294801353 16.699448334590727 0 0 0
606 51 1 14.116698885381725 9.717431246480569 17.543510903113447 0 0 0
607 51 1 14.107537179015988 9.991948242374818 19.049516534700693 0 0 0
608 51 1 15.334978257460927 9.611623214701039 19.84835898890575 0 0 0
609 51 1 15.445828174263896 10.09557116918158 21.300068565403762 0 0 0
610 51 1 16.757818253991154 9.82990597738876 21.94373868271651 0 0 0
611 51 1 16.936579828932093 10.19953680085931 23.41626473867522 0 0 0
8281 64 1 5.116054295182622 25.87576883905269 11.206105142837286 0 0 0
814 51 1 2.7930789229885056 9.977927978966202 0.06845673903332736 0 0 0
815 51 1 2.757307944520717 9.998291732039325 1.5837083679130532 0 0 0
816 51 1 4.120419389010823 9.953661773917478 2.2829407083741997 0 0 0
817 51 1 4.1752652458324295 9.954155631125218 3.7882737979768697 0 0 0
818 51 1 5.541486140635036 9.699183572651327 4.523127220983825 0 0 0
819 51 1 5.583338767223951 9.977344764439424 6.056782739607822 0 0 0
820 51 1 6.990188777137121 9.795005954107282 6.631044876221791 0 0 0
821 27 1 10.613053836916459 11.968013092394747 5.934844746179948 0 0 0
822 27 1 11.819186336783835 12.66659572353204 6.530012704125757 0 0 0
823 27 1 12.108042598948423 11.970380303146996 7.897301359275724 0 0 0
824 27 1 13.275207826240429 12.592077215792145 8.698132243257884 0 0 0
825 27 1 13.334514782504241 12.069106780704558 10.111206971536415 0 0 0
826 27 1 14.572956233020786 12.436987418319951 10.96672130670324 0 0 0
827 27 1 14.690320344632084 12.007420463669275 12.4343303193218 0 0 0
828 27 1 15.958950525610847 12.35521662886796 13.276240217984043 0 0 0
829 27 1 16.27487122428544 11.586483371307896 14.558864778350005 0 0 0
830 27 1 17.401458880935756 12.191169790544997 15.37854418141139 0 0 0
831 27 1 17.729105825395404 11.406903583324464 16.639097401531373 0 0 0
832 27 1 18.612191710932542 12.1548741788821 17.673360170398134 0 0 0
2955 28 1 10.710036704418101 10.023885736358562 0.0961930626530625 0 0 1
4976 53 1 0.6516337831712963 7.436798486018901 18.848572887379625 1 0 0
1041 27 1 7.553103927646389 11.88510702613474 1.790335003334222 0 0 0
1042 27 1 8.917291169915494 12.187434280882265 2.4001027326085356 0 0 0
1043 27 1 9.085030100594171 11.860159252628325 3.8707610516852866 0 0 0
1044 27 1 10.417185794072063 12.340943879995786 4.441850858701262 0 0 0
1045 14 1 7.364359997184345 14.235004661479588 8.383770429214858 0 0 0
1046 14 1 8.637216104734765 13.70227391956521 9.120973421431383 0 0 0
1047 14 1 9.1133989446808 14.491304153713912 10.381435843098348 0 0 0
1048 14 1 10.078287060881783 13.725513213610833 11.291348339330131 0 0 0
1049 14 1 10.52805589419663 14.390201802873161 12.630961900452881 0 0 0
1050 14 1 11.453668344385168 13.528819730946722 13.51723561461179 0 0 0
1051 14 1 11.991074590483864 14.39883659579638 14.66244834821143 0 0 0
1052 14 1 12.87067424122954 13.683574513471832 15.72427752103519 0 0 0
1053 14 1 13.42335039717292 14.556154855443609 16.818964488970565 0 0 0
1054 14 1 14.388091726975414 13.842659092502359 17.76700269266422 0 0 0
1055 14 1 14.635273042120383 14.547477966688472 19.094197838779216 0 0 0
1056 14 1 15.36892056909388 13.730345002431477 20.120963332559143 0 0 0
1057 14 1 15.617451713793002 14.42625708862857 21.46649526016534 0 0 0
1058 14 1 16.853852511573283 13.856821961150784 22.206117021913762 0 0 0
1059 14 1 17.258149197112065 14.66423806682522 23.42159849718415 0 0 0
8280 64 1 3.978730560678841 25.269541038068656 10.431067695645279 0 0 0
1040 27 1 7.319285372293039 12.50652056932869 0.38477075834481955 0 0 0
1263 14 1 3.003838712696658 14.415223197164929 1.8730823800817948 0 0 0
1264 14 1 4.2760073085515575 13.92573273406246 2.561015853447738 0 0 0
1265 14 1 4.33342475218495 14.110143630968283 4.093418188849208 0 0 0
1266 14 1 5.707621466948915 13.716741267616705 4.7079342186508475 0 0 0
1267 14 1 5.932967359412207 14.217010496299215 6.178848760643031 0 0 0
1268 14 1 7.116308509308897 13.62664329521742 6.995979976587702 0 0 0
1269 14 1 10.529620203124717 15.97041476234741 6.1310608219700224 0 0 0
1270 14 1 11.800918257938713 16.61908669553211 6.739524712960361 0 0 0
1271 14 1 12.052928569768273 16.20113678096429 8.17506594122915 0 0 0
1272 14 1 13.270366616644527 16.89493332127194 8.795850264123548 0 0 0
1273 14 1 13.587978033079521 16.277046973320857 10.181880549804943 0 0 0
1274 14 1 14.849276927012745 16.818258142360772 10.849404580365922 0 0 0
1275 14 1 14.996483563330393 16.24329097346762 12.29278668873066 0 0 0
1276 14 1 16.16793786885811 16.756458640167267 13.135485338843816 0 0 0
1277 14 1 16.17773698460632 16.218856498287174 14.563757536307218 0 0 0
1278 14 1 17.21871519921137 16.911351340408643 15.47834283190032 0 0 0
1279 14 1 17.47404433827681 16.240905785030886 16.843140829889123 0 0 0
1280 14 1 18.713342464001034 16.73273330064282 17.58181134747028 0 0 0
8061 61 1 4.157607532982489 22.965672717455483 17.49780341681701 0 0 0
1488 14 1 7.4692818958096545 16.667692494600555 0.45304344022429316 0 0 0
1489 14 1 7.568483058533655 16.0486319329315 1.8617878201288651 0 0 0
1490 14 1 8.72639125977586 16.508155237541043 2.6846303382996277 0 0 0
1491 14 1 8.894234216362708 16.013832189580864 4.137310441148518 0 0 0
1492 14 1 10.225290139251012 16.461352498168235 4.767590199392637 0 0 0
1493 18 1 7.35779417804269 19.100061993962356 8.088059953986079 0 0 0
1494 18 1 8.670927449642805 18.698737769993485 8.764615213954059 0 0 0
1495 18 1 8.796280569545571 19.20496402705657 10.196682057353627 0 0 0
1496 18 1 9.975024588651104 18.609570301846965 11.005450105181406 0 0 0
1497 18 1 10.032923099277559 19.063584267054072 12.470704788459475 0 0 0
1498 18 1 11.287574220909141 18.59977783699157 13.129550880653726 0 0 0
1499 18 1 11.443574456818187 19.0505256293875 14.592777917139804 0 0 0
1500 18 1 12.825447203044291 18.80637286785861 15.14322726423078 0 0 0
1501 18 1 12.920552929420756 19.202153665923696 16.59408680743637 0 0 0
1502 18 1 14.246428948345601 18.912778818078863 17.223299911023595 0 0 0
1503 18 1 14.256182491014643 19.114948888541704 18.674681755858142 0 0 0
1504 18 1 15.445818279119477 18.480202654752667 19.461376513796257 0 0 0
1505 18 1 15.390655380967432 18.666986582252157 20.975533290164755 0 0 0
1506 18 1 16.749853850576162 18.623746193550936 21.577115034213094 0 0 0
1281 14 1 18.964572198219503 16.055754245257628 18.911620681736014 0 0 0
7745 59 1 1.0756433990986207 18.936871633767694 11.185653064554277 0 0 0
1522 18 1 2.8228111460732515 18.63682160929449 0.4207788400307544 0 0 0
1523 18 1 3.0167632783635567 19.30006809912852 1.7928922676331813 0 0 0
1524 18 1 4.189671315963261 18.600350447721645 2.529119808474555 0 0 0
1525 18 1 4.56076916327301 19.211147425069285 3.8734122547582857 0 0 0
1526 18 1 5.754912872311933 18.579642158067696 4.599024224790285 0 0 0
1527 18 1 5.913592805855591 19.025328544996015 6.084870647908148 0 0 0
1528 18 1 7.227512383951436 18.590184058992964 6.657458158964314 0 0 0
1644 21 1 10.628564924376564 20.219867491035114 5.722705982632582 0 0 0
1645 21 1 11.148238524704311 21.14290425391571 6.8946016423532095 0 0 0
1646 21 1 11.918631942756663 20.265153704640827 7.884605108720476 0 0 0
1647 21 1 12.544980044210691 21.049937175543352 8.976412259441155 0 0 0
1648 21 1 13.564849789937567 20.314634188391896 9.862607555937046 0 0 0
1649 21 1 14.01209309335037 21.07251064149987 11.118745308896447 0 0 0
1650 21 1 15.015658004812279 20.318191976605128 11.98745509323131 0 0 0
1651 21 1 15.349806537633073 21.10350221486586 13.259184012795313 0 0 0
1652 21 1 16.25433908923318 20.347626470776966 14.267969478447434 0 0 0
1653 21 1 17.032045554839126 21.249646633709606 15.284404697650157 0 0 0
1654 21 1 17.666507582969597 20.43002442597826 16.4110696756592 0 0 0
8057 61 1 1.716034361087111 23.013236914016765 13.071838102895432 0 0 0
8056 61 1 0.5773569919072344 23.78072753084053 12.399082310597144 0 0 0
1676 21 1 6.862304393401404 21.384354577495237 0.519173240878414 0 0 0
1677 21 1 7.811626865605783 20.563241858436005 1.3716274554373948 0 0 0
1678 21 1 8.375545960622349 21.215382563184818 2.632799626732304 0 0 0
1679 21 1 9.216431653607778 20.356139881432384 3.5432073678995577 0 0 0
1680 21 1 9.94916504192349 21.098777117057256 4.646112367449159 0 0 0
1681 18 1 7.2087836011601105 23.560470090980232 8.43082108617251 0 0 0
1682 18 1 8.534539239818399 23.259339371553136 9.055439091264075 0 0 0
1683 18 1 8.530093515221413 23.569800300163767 10.492785781576634 0 0 0
1684 18 1 9.901916360771281 23.333669005865264 11.186933897384415 0 0 0
1685 18 1 9.983988577721938 23.387360937695284 12.685916136063536 0 0 0
1686 18 1 11.353078240880222 22.99666451186388 13.21908701806625 0 0 0
1687 18 1 11.434037045396508 23.226168653154023 14.755449883246106 0 0 0
1688 18 1 12.860078254807762 22.98052558852896 15.35850666482461 0 0 0
1689 18 1 13.035622634708151 23.28724914873464 16.823119384271298 0 0 0
1690 18 1 14.360361813627874 22.765422586534736 17.429343470928163 0 0 0
1691 18 1 14.29565206812034 23.233549188859367 18.862446302739876 0 0 0
1692 18 1 15.542361271833878 22.735634007237604 19.551375615189137 0 0 0
1693 18 1 15.60856083985497 23.42620779604197 20.925213341324767 0 0 0
1694 18 1 16.90248610504114 23.14265145171276 21.728574913902033 0 0 0
1655 21 1 18.315084154053466 21.28287634653827 17.47895952306362 0 0 0
7681 61 1 0.3229434352307061 16.236452800431852 3.909567947021703 1 0 0
1898 18 1 2.6927968849996344 23.032302255369782 0.5666095527855908 0 0 0
1899 18 1 2.8849708435566046 23.77130690930034 1.89714492696329 0 0 0
1900 18 1 3.98749669988178 23.13384179708864 2.7619802443664248 0 0 0
1901 18 1 4.400146347932608 23.836089706006877 4.076138293163472 0 0 0
1902 18 1 5.6580504598773755 23.229817472766456 4.766463926339509 0 0 0
1903 18 1 5.893683575110358 23.84116165846782 6.157322884100352 0 0 0
1904 18 1 7.1140525047427365 23.196158950438974 6.882057565923735 0 0 0
1905 23 1 10.287655173404685 24.981697648093036 6.114555592659415 0 0 0
1906 23 1 11.667631371862747 25.387672393777812 6.7664722637026475 0 0 0
1907 23 1 11.722495537934492 25.399764196517786 8.357207832362205 0 0 0
1908 23 1 13.163121638575475 25.54224391321559 8.8981949571741 0 0 0
1909 23 1 13.229823652413929 25.15169698181179 10.397383664208197 0 0 0
1910 23 1 14.507738064774115 25.65697655134437 11.0692568380377 0 0 0
1911 23 1 14.696534641920671 25.184948236861736 12.520016173654371 0 0 0
1912 23 1 15.95906075334907 25.620005144852378 13.295211679982867 0 0 0
1913 23 1 16.076554113494225 25.175592537463746 14.769701958445191 0 0 0
1914 23 1 17.37813402615213 25.36121114169985 15.529797978507025 0 0 0
1915 23 1 17.262992421900716 25.063191212062996 17.054844366195876 0 0 0
8275 64 1 0.958316093605803 26.26734580486134 4.816956850064166 0 0 0
8287 64 1 9.188823937094355 25.636921562748665 17.732207932170642 0 0 0
2124 23 1 7.257934115191895 25.29841483264992 0.3047261815477714 0 0 0
2125 23 1 7.296327810242425 24.99701594775445 1.770234065226218 0 0 0
2126 23 1 8.66326283779612 25.31702369486903 2.372179428780302 0 0 0
2127 23 1 8.836841242594481 24.94054855409014 3.834506463486047 0 0 0
2128 23 1 10.15698934310139 25.236336408003652 4.591844208079668 0 0 0
2129 21 1 13.621033643972483 0.7315041634019943 4.173459582269804 0 0 0
2130 21 1 14.998668413399072 0.6925841342413103 4.778234941977394 0 0 0
2131 21 1 15.167407751609705 1.417984908343214 6.06766229930911 0 0 0
2132 21 1 16.456047841580485 0.9974568899994046 6.818109588100142 0 0 0
2133 21 1 16.616051560274915 1.5611593143008944 8.21950166097 0 0 0
2134 21 1 17.769137623908094 0.8969561163006091 8.93047206351972 0 0 0
2135 21 1 17.77428719659436 1.2599013376541233 10.407326453017205 0 0 0
2653 27 1 18.447091229936998 7.208090300374349 3.8067150571233004 0 0 0
2351 21 1 12.20650626474046 0.8082944435681555 1.9913414393269335 0 0 0
2352 21 1 13.513325627370369 0.3835975651248689 2.695581424887393 0 0 0
2353 39 1 16.814628116791305 2.7611525927280796 1.6678443817264827 0 0 0
2354 39 1 18.247506479299133 3.1821003641802768 2.186556591419124 0 0 0
2355 39 1 18.378379290708562 2.911673855603609 3.6877381131035185 0 0 0
2576 39 1 16.611540855397305 3.193502563686914 0.1841426253117039 0 0 0
2577 25 1 13.526865502475871 5.693168418237618 4.176646429730448 0 0 0
2578 25 1 14.78267561953075 5.203240439226291 4.789189165087714 0 0 0
2579 25 1 15.192157645894746 5.885929364777944 6.118017779549718 0 0 0
2580 25 1 16.395750009188216 5.213567921750952 6.754004579009969 0 0 0
2581 25 1 16.63061284067542 5.693035361958467 8.168204125984582 0 0 0
2582 25 1 17.80989328607179 5.037881693185939 8.909173408177036 0 0 0
2583 25 1 18.013031783495183 5.551299866078547 10.329999447902276 0 0 0
2611 25 1 11.591021333125102 4.722057880305767 0.9396198246310966 0 0 0
2612 25 1 11.923372928295526 5.633542687465089 2.0845185514940967 0 0 0
2613 25 1 12.992966347959689 4.9124622740468675 2.976385421523779 0 0 0
2651 27 1 16.73379865848743 7.09547534081798 1.7828736192053927 0 0 0
2652 27 1 17.775255455990226 7.919280027690825 2.585202383409795 0 0 0
8286 64 1 7.978776087855667 25.160683625607167 16.892805766326102 0 0 0
2687 27 1 16.327836905760744 7.722301545193127 0.49320392940708063 0 0 0
2735 29 1 13.97101393717169 9.901759919977193 4.128302103246104 0 0 0
2736 29 1 15.31322289718242 10.160057840734236 4.752217412508228 0 0 0
2737 29 1 15.37004442253477 9.97940448458986 6.2671847528563465 0 0 0
2738 29 1 16.766440238843327 9.905055435549208 6.870801073636785 0 0 0
2739 29 1 16.743076337796168 9.754550239875034 8.404862574533128 0 0 0
2740 29 1 18.12078369535334 10.204206515828693 9.033114556590622 0 0 0
2741 29 1 18.09196965933458 10.079613046965042 10.556858311721083 0 0 0
2956 29 1 12.187924821651535 9.9406961743141 0.5190084433599939 0 0 0
2957 29 1 12.44446635823615 9.886410872639223 2.0258536234673765 0 0 0
2958 29 1 13.847024590291417 10.060871563320797 2.6097746692803527 0 0 0
2959 32 1 17.47421512412587 12.037026088674374 1.9944802119862735 0 0 0
8066 61 1 7.347548481448707 23.937536140045093 23.02402303018318 0 0 0
8060 61 1 3.324525419198438 23.708348243092296 16.44287009727811 0 0 0
3182 32 1 17.392109023355115 12.380732280239416 0.48590995197712983 0 0 0
3183 3 1 13.825395867436908 14.788572132684864 3.7762329240979176 0 0 0
3184 3 1 15.08016454407404 14.299664790925789 4.403104758211085 0 0 0
3185 3 1 15.325078141701573 14.869675058563175 5.826630231274162 0 0 0
3186 3 1 16.479230262376902 14.257143222934342 6.6699396232377435 0 0 0
3187 3 1 16.65043320290613 14.873605313437174 8.0465400214361 0 0 0
3188 3 1 17.95775141975986 14.322853536519627 8.732148861129389 0 0 0
3189 3 1 17.951437805145407 14.539981443369104 10.247440069002284 0 0 0
4396 17 1 16.065096162890836 25.502145262115 0.4172474425944145 0 0 0
3405 3 1 12.431346528576888 14.849325155755878 1.5888303011989116 0 0 0
3406 3 1 13.672458238647605 14.283290362432105 2.327744517971575 0 0 0
3407 55 1 17.453312103186004 16.2010021308679 1.9202080184996564 0 0 0
1695 18 1 16.819598676068704 23.548587290273733 23.221855312911906 0 0 0
8059 61 1 3.054133569754942 22.89724424980303 15.21921185538917 0 0 0
3630 55 1 17.314866574149043 16.818538044996313 0.5777918183269192 0 0 0
3631 35 1 13.868341000075146 19.300142163537494 3.72898366121897 0 0 0
3632 35 1 14.851341391954943 18.651150640198736 4.664917121993767 0 0 0
3633 35 1 15.211228815925066 19.405071958512288 5.975832242864235 0 0 0
3634 35 1 16.200517398500427 18.645618186589083 6.803862923109934 0 0 0
3635 35 1 16.820578144901933 19.45222529523704 7.913176563471422 0 0 0
3636 35 1 17.853540813091914 18.591475260246902 8.665808067796297 0 0 0
3637 35 1 18.531845540056644 19.285235072966444 9.898893244744233 0 0 0
1507 18 1 16.82895844102031 19.28614877523612 22.997665778533044 0 0 0
3853 35 1 12.412015829514337 19.161541514365616 1.8024508401700914 0 0 0
3854 35 1 13.602995674343191 18.506284629719666 2.4838823701554107 0 0 0
3855 10 1 16.642693759898123 21.11527634582666 1.023743631483941 0 0 0
3856 10 1 17.97934136153546 20.902283899888786 1.7116109736852805 0 0 0
3857 10 1 18.058109069613238 21.09795168998654 3.2530784405585536 0 0 0
5274 44 1 0.6147521268231838 12.16163600797429 19.0909174830312 1 0 0
4079 37 1 13.15995905046764 23.15546578352937 3.5050330073790814 0 0 0
4080 37 1 14.57723817961537 23.265631291816835 4.1685903680323655 0 0 0
4081 37 1 14.778065129860973 23.121528277831974 5.754675349934319 0 0 0
4082 37 1 16.07930803995847 23.668321214034865 6.322029648012043 0 0 0
4083 37 1 16.135057175916582 23.451266791687345 7.839979079385228 0 0 0
4084 37 1 17.496433036125392 23.528714823898763 8.460951418929962 0 0 0
4085 37 1 17.57556542985421 23.07315817838515 9.93259924699917 0 0 0
8292 64 1 12.181483353427621 25.35602534797042 23.386775567498244 0 0 0
4134 37 1 11.776627565388173 23.334192798196597 1.393931602981211 0 0 0
4135 37 1 13.147906723116536 23.189792165591157 1.9824396840525575 0 0 0
4173 17 1 16.736898262858052 24.6356999607941 1.4979514388839432 0 0 0
4174 17 1 17.648366129420303 25.502356091063845 2.4034642444859986 0 0 0
4175 17 1 18.34674056830564 24.855692820434992 3.5571972603155944 0 0 0
7844 59 1 12.41915553269533 20.74522852887928 23.552280743297338 0 0 0
4639 41 1 1.2460982249400678 3.586944610388172 19.67672951876586 0 0 0
4640 41 1 1.69088769397481 2.749886102654898 20.9159891081861 0 0 0
4641 41 1 2.700620977711848 3.5158348437162372 21.83874706659758 0 0 0
4642 41 1 3.197037203302017 2.673720312786308 23.01640920505988 0 0 0
8279 64 1 3.6588144554926694 26.14853154872815 9.237297566898903 0 0 0
4977 53 1 1.3968105557854948 8.258889063496216 19.946141142154087 0 0 0
4978 53 1 1.920263046493814 7.451508401500547 21.166615935971667 0 0 0
4979 53 1 2.6773734458773055 8.206547298672668 22.246116716359843 0 0 0
4980 53 1 3.212458777852639 7.3623380547951 23.40987832463621 0 0 0
8278 64 1 2.616875620510589 25.542426175998184 8.33056180922591 0 0 0
5275 44 1 1.9453888080839117 12.301632164805907 19.80922795758427 0 0 0
5276 44 1 1.9246373900676166 11.97750729915551 21.310957447736882 0 0 0
5277 44 1 3.1774662639955595 12.20506924567036 22.152534879093373 0 0 0
1917 23 1 18.464188225178443 25.28128204778469 19.287622514036684 0 0 0
8065 61 1 6.90245424493181 23.139092845592614 21.793125028550314 0 0 0
5570 41 1 1.7330677452022247 16.28947436200901 19.4822239985425 0 0 0
5571 41 1 1.7521192991083976 16.61513931650319 20.982956770625044 0 0 0
5572 41 1 3.0847947746644335 16.304955009015437 21.649959489963543 0 0 0
5573 41 1 2.99610754309702 16.645088205887138 23.070103567150074 0 0 0
8058 61 1 2.1697629616076477 23.71233268141985 14.317851785113906 0 0 0
5871 49 1 1.197040485372788 21.38276868943995 19.69425420697115 0 0 0
5872 49 1 1.602905527237648 20.660381037938826 20.980826777238814 0 0 0
5873 49 1 2.5135079105278098 21.35477157248603 22.008288899539874 0 0 0
5874 49 1 3.127964520684521 20.4808953753414 23.10098351654082 0 0 0
2350 21 1 12.124905095604582 0.5528009518048786 0.5246838631202183 0 0 0
6319 2 1 1.0542419445851559 25.975195975974216 19.2275542145398 0 0 0
6320 2 1 1.0784480826552079 25.35963926089184 20.602227870793058 0 0 0
6321 2 1 2.2821732091658955 25.719521030727122 21.471133170136003 0 0 0
6322 2 1 2.53626990230359 25.06479559067389 22.786597360814245 0 0 0
8276 64 1 1.303177740506539 25.56856859185176 6.0882335380667305 0 0 0
6537 53 1 0.670169938935818 1.1344903617211755 11.149345155568552 0 0 0
6538 53 1 0.7769791291917796 1.244191329835997 12.696912191640548 0 0 0
6539 53 1 2.1821268070028794 1.1495693617360083 13.263857874220449 0 0 0
6540 53 1 2.2169716117065694 1.2980771858264273 14.756599051285294 0 0 0
6541 53 1 3.5862415983486073 1.3249631203356953 15.374592412330498 0 0 0
6542 53 1 3.4754810877469255 1.3580229068516791 16.890130311243876 0 0 0
6543 53 1 4.759585378350987 1.0863294243007968 17.645512688153687 0 0 0
6544 53 1 4.623448399153471 1.327366196883362 19.172560214363035 0 0 0
6545 53 1 6.012478088268092 1.1775622850255794 19.794783583706796 0 0 0
6546 53 1 6.110073801957401 1.2844718615970714 21.299753487258645 0 0 0
6547 53 1 7.4903250354974364 1.079100182084475 21.9492531116654 0 0 0
6548 53 1 7.416082692393511 1.2678164697112055 23.46379391283548 0 0 0
8064 61 1 6.243068345682679 23.873088826752095 20.610638374653163 0 0 0
6787 57 1 1.2671240405699435 3.8025477061316253 5.203528980283983 0 0 0
6788 57 1 1.4777361145574763 3.332042294418474 6.651518111995178 0 0 0
6789 57 1 2.7667916994851156 3.766176547324925 7.240861040801257 0 0 0
6790 57 1 3.0082686115216815 3.2302729964797408 8.65731186002124 0 0 0
6791 57 1 4.2390008575535 3.839540413249589 9.393572690967348 0 0 0
6792 57 1 4.584784824855042 3.1307203777928927 10.655026566427267 0 0 0
6793 57 1 5.713330345347846 3.7685737626596802 11.51928537147236 0 0 0
6794 57 1 5.994462620490898 3.038950477392022 12.850478725580532 0 0 0
6795 57 1 7.147341580064267 3.680617742708044 13.640633580145668 0 0 0
6796 57 1 7.324663959085208 2.965316488785144 14.947681025232521 0 0 0
6797 57 1 8.292486020798842 3.616390734344689 15.945288864693918 0 0 0
6798 57 1 8.659621196827803 2.899348959535024 17.23520251798683 0 0 0
6799 57 1 9.687294194715802 3.551826571588247 18.146630470365036 0 0 0
6800 57 1 9.774245454361418 3.0042287561150087 19.540969314724425 0 0 0
6801 57 1 11.000785122464306 3.378112089238378 20.343694274919432 0 0 0
6802 57 1 11.06952545851202 2.947455145835651 21.81259746292395 0 0 0
6803 57 1 12.172209474820518 3.697846978074338 22.48218773341412 0 0 0
294 3 1 6.908315623901572 3.6461142190757063 0.3162062958360798 0 0 0
8063 61 1 5.591017151979213 23.082538898315818 19.503906277388186 0 0 0
8283 64 1 6.474565527206228 25.671811119605408 13.34457997850863 0 0 0
6837 55 1 0.8744052794024932 5.373487215445619 12.923545340813753 0 0 0
6838 55 1 2.1811539073407697 4.926856220596281 13.570995279705922 0 0 0
6839 55 1 2.425965753025969 5.56057389824748 14.92933082558724 0 0 0
6840 55 1 3.7675780585104537 5.225626742824754 15.591177093306419 0 0 0
6841 55 1 3.747369504751042 5.730757511520512 17.04187054984728 0 0 0
6842 55 1 4.9732804419335075 5.458249910720369 17.831588805885175 0 0 0
6843 55 1 4.922355458151072 5.664281983234754 19.326209170262082 0 0 0
6844 55 1 6.274524005709737 5.469185441499781 19.937937354773624 0 0 0
6845 55 1 6.304057371896559 5.828081355633103 21.412082551523 0 0 0
6846 55 1 7.537522973676726 5.285320161151617 22.06274025126928 0 0 0
6847 55 1 7.4315070111936 5.373618474715607 23.583963116945444 0 0 0
7577 19 1 0.5883838774512256 14.077898660004033 10.88097274127761 0 0 0
7056 49 1 1.188846199773474 7.927763897390961 4.902787761011237 0 0 0
7057 49 1 1.4012792703130272 7.3091873934402765 6.305019240197126 0 0 0
7058 49 1 2.5866402444854377 7.807441768699189 7.130806467392854 0 0 0
7059 49 1 2.7551863775181133 7.4503092731524125 8.631993910772453 0 0 0
7060 49 1 4.029836427592122 7.9306065393016905 9.446816750471152 0 0 0
7061 49 1 4.238850893807593 7.357471389347198 10.845248770944973 0 0 0
7062 49 1 5.433900047102459 7.943325383436727 11.614471004880473 0 0 0
7063 49 1 5.594928373293153 7.4569926796280415 13.068489442103848 0 0 0
7064 49 1 6.9203456362718985 7.872734752035476 13.66075738571052 0 0 0