LAMMPS data file via write_data, version 23 Jun 2022, timestep = 11112117

8487 atoms
2 atom types
8471 bonds
3 bond types
8455 angles
3 angle types
8439 dihedrals
3 dihedral types

0 36.89775039 xlo xhi
0 26.67072 ylo yhi
45.364843048484246 191.38676135153077 zlo zhi
0 4.59416749647791 0 xy xz yz

Masses

1 14
2 15

Pair Coeffs # lj/cut/omp

1 0.0914 3.95
2 0.1947 3.75

Bond Coeffs # harmonic/omp

1 449.5 1.53
2 449.5 1.53
3 449.5 1.53

Angle Coeffs # harmonic/omp

1 62.0967 114
2 62.0967 114
3 62.0967 114

Dihedral Coeffs # opls/omp

1 1.411 -0.271 3.145 0
2 1.411 -0.271 3.145 0
3 1.411 -0.271 3.145 0

Atoms # molecular

4282 32 1 17.838702180103454 0.6625517572747147 46.54643412523493 0 1 0
6984 54 1 0.9460654328983242 10.924718559176787 53.0869840760888 1 0 0
1197 7 1 16.933340756373777 14.798638229579892 55.6357073407438 0 0 0
7940 59 1 3.201794634666848 21.029064861882592 57.223223769179015 1 0 1
1734 13 1 17.8690191976977 25.055911884288545 57.55356651487391 0 0 0
448 3 1 8.418455267768195 5.282745612091607 47.20459447524974 0 0 0
1698 8 1 4.231420592502301 21.324616212728127 46.73830422521293 1 0 1
3613 56 1 12.843720852109298 21.13452870408855 45.70750038013864 0 0 0
6950 49 1 10.97084758677361 10.965605452888761 59.70517952804109 0 0 0
2909 22 1 16.72651136865722 10.781662994999056 50.47724874961848 1 0 1
1411 47 1 7.828958823118641 16.61828809612386 50.32166323250357 1 0 1
8392 63 1 8.274927452375733 0.4472792015970431 57.18633253040918 1 1 1
2809 48 1 4.819055531565205 2.781588094371366 58.96437489473857 0 1 0
1944 13 1 8.985083085566355 23.995975960859724 45.73735721826291 0 0 0
1707 8 1 10.475204656857485 20.87745984919215 52.753972281663835 1 0 1
224 55 1 7.1747405833449545 3.613225176392105 51.51418897353014 0 0 0
447 3 1 8.244152286767807 4.05237324529276 46.30664614932394 0 0 0
229 3 1 11.609624810362675 5.310485914617699 50.85778375358805 0 0 0
4255 30 1 13.831598315423786 24.580901411917296 46.71305309147104 1 0 1
4 55 1 11.032884961812165 3.8359056036179955 54.79574205544162 0 0 0
919 48 1 2.290861490249428 3.1198934398682274 56.24526377950545 0 1 0
6937 49 1 2.315753519276443 9.283748413310231 48.185842107094764 1 0 0
1729 13 1 15.167831929163764 23.395605865606086 53.10835988126799 0 0 0
6945 49 1 7.653350151367318 10.52401638969763 55.8060708920071 0 0 0
974 60 1 6.783807330106933 11.428838533158313 50.936311035368256 0 0 0
720 5 1 9.99964686683213 9.19306431435475 47.023017945063636 0 0 0
1195 7 1 15.054277407646094 14.860422054376132 54.065070503368965 0 0 0
2036 3 1 10.925556681396483 0.8248503755127793 51.12316947917911 0 1 0
1722 13 1 9.876225008832352 22.4686951632742 47.21656783158038 0 0 0
2341 17 1 16.95380046586528 5.097311942503203 46.050000126796434 0 0 0
7601 51 1 0.747166224176636 6.254951206438109 54.34473392062121 0 0 0
226 3 1 10.058235418163495 3.6823842331345698 47.92380779652558 0 0 0
1702 8 1 7.266463394112915 21.455878909083584 49.21114999910513 1 0 1
7436 26 1 4.368887056418891 17.317430556289672 58.27162707210456 0 0 0
1092 51 1 1.800329163938307 6.865605811591048 55.35893535378905 0 0 0
1189 16 1 11.536652934828759 13.231414687154718 48.91918669437983 0 0 1
4256 30 1 13.480754107981205 24.77376795761265 48.15096551819476 1 0 1
2952 42 1 18.159759702274176 12.920053169488535 46.78889745509315 0 0 0
8194 62 1 5.079149515640329 24.931555646194735 57.92883380937269 0 0 0
3173 24 1 17.70501787678427 15.799975314079491 51.320578553171025 0 0 0
1438 9 1 16.14022721747804 19.3704865013959 53.96437211610712 0 0 0
7668 58 1 2.621598333798516 18.399561412331845 49.86619584972715 0 0 0
7209 56 1 11.340825787331585 14.380807601081074 59.32085393287608 0 0 0
2046 3 1 18.486592993311067 2.5222495197566848 57.84127683125652 0 1 0
227 3 1 10.98897329496391 3.6195579792644397 48.98544693473407 0 0 0
2043 3 1 15.677832360660313 1.3608314651281865 55.586975163930056 0 1 0
1190 16 1 11.556988504995745 14.086655182447808 50.17091273197928 0 0 1
7196 19 1 2.437857351440526 13.111187136291898 50.126709244500994 1 0 1
6148 46 1 1.532135160860462 0.5031031341582083 59.349916313722076 1 1 1
4051 35 1 18.243763104962866 23.15797163352936 46.59369778862312 0 0 1
6620 12 1 0.6444933208438011 5.425050540853846 47.36071533689517 0 0 0
1415 47 1 10.405044110360013 17.306406099352607 53.29312995399082 0 0 1
6941 49 1 4.713602467504958 9.356629491410986 52.576495994806656 0 0 0
6630 12 1 6.667838287747708 6.200027786903906 55.375160354146395 0 0 0
1433 9 1 12.610923365424075 18.807024050079868 50.68928877050133 0 0 0
973 60 1 6.718384413088352 11.028079292479807 49.47562667415998 0 0 0
2951 42 1 17.035129332075886 13.472657093078027 46.0580052431962 0 0 0
1443 9 1 17.925828659252605 19.87843196910534 59.187156262605995 0 0 0
473 4 1 12.643248355791256 7.8147116794107525 56.12210615016218 0 0 0
2908 22 1 16.433942583381715 11.416544735022462 49.209411117995614 1 0 1
2255 3 1 7.768657097765033 0.2558898442240578 46.49741070937354 0 1 0
5552 25 1 1.221815895527116 19.00218239687001 58.99054939063797 1 0 1
1427 9 1 8.705560710087115 17.833874659498633 46.064281209988486 0 0 0
1713 8 1 13.725315555588983 22.44398755299721 59.04916706827539 1 0 1
3168 24 1 13.852759379627937 16.15012423668324 46.88727273235299 0 0 0
7678 58 1 9.393794391249397 19.664126747587915 58.40601047612168 0 0 0
7973 60 1 2.058816552571311 22.496388578480747 49.280902156888686 0 0 0
732 5 1 16.54987342330079 10.673794992182666 57.26734712517205 0 0 0
1193 16 1 14.90463630573224 13.926305979192422 51.53874038942159 0 0 1
4050 35 1 17.379944462068167 22.18674941981003 45.86023454835411 0 0 1
734 5 1 18.395303631968236 11.955662517600356 57.74005299070121 0 0 0
1414 47 1 9.938128183710935 16.89595785318151 51.97223130940384 0 0 1
6990 54 1 5.145060514347624 12.244754987339029 58.440374140622716 0 0 0
1710 8 1 12.700656152224447 21.05142517290754 55.849000629716386 1 0 1
2906 22 1 14.431431836896671 11.196355973193409 47.46686787148586 1 0 1
220 55 1 4.975688125894256 3.1397668776452012 47.02858138332732 0 0 0
1951 64 1 2.9805532864942843 25.45785644801256 45.37091875534421 0 0 0
6625 12 1 4.091993532821493 5.392140993397728 51.15464829945161 0 0 0
1705 8 1 8.34478396098114 21.454940546857298 51.69192353789225 1 0 1
1953 64 1 5.094179775898659 24.82390843427381 46.378305104144914 0 0 0
6 55 1 11.420786201355503 3.2110973909430345 57.05517597493654 0 0 0
7429 26 1 0.5987113775155145 16.585749389031164 53.251862419009676 1 0 0
231 3 1 13.573373190183757 4.429195908484858 51.9430334041259 0 0 0
1952 64 1 4.447773929869797 25.80254868347132 45.446946402617584 0 0 0
2274 31 1 13.747993750364397 1.5126023311511387 47.427476966546564 0 0 0
8393 63 1 8.330194978407674 1.237456586875664 58.396244492518974 1 1 1
1439 9 1 15.929505003088495 19.11376317315818 55.463847030557304 0 0 0
2 55 1 8.951543670480493 3.596920387809028 53.52454990336098 0 0 0
1735 13 1 18.33493028002912 23.649991491316968 57.312189165212935 0 0 0
7430 26 1 1.6790587293522958 15.684866042370132 52.773136469675 1 0 0
2037 3 1 12.264183734848022 0.9084124744483869 50.34118797273129 0 1 0
1733 13 1 16.73971470483471 25.085801631922386 56.5162802514682 0 0 0
1704 8 1 8.616649558541223 20.111052476378486 50.95784044026534 1 0 1
7673 58 1 7.010342678498729 18.7748196512337 54.033101846497715 0 0 0
728 5 1 14.07459173068564 10.656417626834061 53.851741766507395 0 0 0
5 55 1 10.605530367062679 2.849901703841269 55.873088288205224 0 0 0
7982 60 1 7.777384005061384 22.547053034966524 56.261326988328506 0 0 0
726 5 1 13.52395187772033 8.751878895914608 52.59808996707091 0 0 0
6412 48 1 0.29418456984757374 3.476077488523477 53.18462368038465 0 0 0
1699 8 1 4.422398184005933 20.11151256739396 47.61652155480576 1 0 1
4475 51 1 3.4219568900180364 7.955305749635639 57.09565683845735 0 0 0
1188 16 1 10.308515804915423 12.475066678791867 49.14060974417666 0 0 1
756 60 1 10.698436074178204 12.174250288624943 55.58466911366344 0 0 0
8423 63 1 4.506122708531893 1.5914066511497542 52.17164778937159 1 1 1
477 4 1 15.203959191043282 8.285997175515694 59.045209883974294 0 0 0
7665 58 1 0.6764473233129759 18.95971050004213 47.627050130850485 0 0 0
7906 59 1 6.323904124244536 21.173642164552295 59.09260114153731 1 0 1
6618 12 1 0.08517191418261838 6.8340553851868915 45.49247710320163 0 0 0
7202 19 1 6.496054197616019 14.648840489960556 53.867838589627304 1 0 1
3 55 1 10.483060830079388 3.2657550256558596 53.552939828631146 0 0 0
1429 9 1 10.062291922030075 18.615001902518316 47.93289978824873 0 0 0
6986 54 1 1.746145906602801 11.982498695840649 55.01760389415584 1 0 0
470 4 1 9.499883072254823 7.951979539735551 54.058686796558675 0 0 0
1431 9 1 11.218388640890229 17.121502472976307 49.33588461723652 0 0 0
1959 64 1 7.937974789530438 25.51677591809991 51.97302230508284 0 0 0
752 60 1 8.673507129472247 10.527688718897206 51.84972911219439 0 0 0
7667 58 1 1.417159724372374 19.187108366021004 50.00072115596491 0 0 0
8420 63 1 1.8293313197343644 0.8159370672801228 49.76854091170828 1 1 1
1709 8 1 11.67702533695466 21.447568188524244 54.76262605160143 1 0 1
1441 9 1 16.348617403881423 20.62858270218186 57.34662037248594 0 0 0
2617 21 1 17.628640494564642 8.222421480835164 51.99731981925524 0 0 1
7432 26 1 1.6198913532317905 15.914620627076351 55.20917143961362 1 0 0
1708 8 1 11.316481066052056 20.344872608456036 53.96007540684449 1 0 1
2277 31 1 16.376540565079107 3.404919454727968 49.09443549893156 0 0 0
1192 16 1 13.81577109076124 13.507047452581151 50.59227910153304 0 0 1
1711 8 1 12.587236057567484 21.963979256425414 57.06430259568878 1 0 1
3174 24 1 17.78650927184288 17.29320615586329 51.47674524635589 0 0 0
3171 24 1 16.40281460232144 16.904266859808796 49.508617915824395 0 0 0
3175 24 1 18.44271772888741 17.503229047334298 52.78329995759341 0 0 0
474 4 1 12.408400198160772 9.138799509301268 56.70190843318659 0 0 0
1956 64 1 6.366969320184336 26.12158266997582 49.56532416566603 0 0 0
3617 56 1 14.777973450538559 21.218560707250244 49.098685851829636 0 0 0
6939 49 1 3.2222789313118714 9.696069848434703 50.3961883405537 0 0 0
1408 47 1 5.891546687858204 15.812367246705985 47.114894319564655 1 0 1
462 4 1 4.3459626512142835 6.89238397088486 47.14864439028257 0 0 0
6047 39 1 1.2441993632750763 23.709623707051946 58.97670315924846 1 0 1
3618 56 1 16.03154851788236 20.63921097044817 48.68070682357033 0 0 0
1410 47 1 6.750858639044452 16.36019022574035 49.331664869721244 1 0 1
1700 8 1 5.67357764742747 20.25981222839269 48.3894231759304 1 0 1
7200 19 1 4.8734847629544635 13.422283961447041 52.93054226308903 1 0 1
239 3 1 18.292963294669082 7.080000970736876 58.14612400182619 0 0 0
7672 58 1 5.9581006698553605 18.936091598008442 52.92438289603131 0 0 0
7981 60 1 7.517811509473039 23.86157534966645 55.86874669660384 0 0 0
463 4 1 5.228625320707703 6.814447599786349 48.363585154706115 0 0 0
753 60 1 10.06351269596039 10.97024578629069 52.345019862400235 0 0 0
4257 30 1 14.582504407461338 25.043511060335568 49.10471059378268 1 0 1
4281 32 1 17.299738162746287 26.24809750745345 45.914028680329594 0 0 0
1726 13 1 11.64790526248546 23.95497239765588 51.57207967621105 0 0 0
1697 8 1 3.624739869415849 20.98816373071658 45.48328357939166 1 0 1
7977 60 1 4.70984035318695 21.680654733554466 52.34756061922975 0 0 0
4261 30 1 17.461466660417717 25.338120494274644 52.2890766513534 0 0 1
7435 26 1 4.776170843028858 16.07466563935668 57.404947240084205 0 0 0
8424 63 1 4.5175811604430045 0.31159067937380874 53.034299082113385 1 1 1
1955 64 1 5.354962517317472 26.177849221426843 48.48169251612531 0 0 0
8188 62 1 0.31008543378825737 24.949871468031976 53.55056485117722 0 0 0
2257 3 1 10.077021426169377 26.58733340455123 47.687896586535885 0 0 0
2281 31 1 17.90545557254766 3.487465342140079 53.20280240331775 0 0 0
1728 13 1 13.662638505524518 23.622670428357956 53.126068728281545 0 0 0
5284 48 1 1.1985956287736572 1.4920901134262001 54.673393505250324 0 0 0
1954 64 1 4.628570049586576 25.068967788563675 47.78128143885001 0 0 0
6940 49 1 3.408291207391361 9.190690317568041 51.871691005401544 0 0 0
2042 3 1 14.833476731627112 2.324398475704932 54.96065154888204 0 1 0
1442 9 1 17.824573099479064 20.34082378913608 57.67519004738641 0 0 0
7679 58 1 10.181166225731127 19.993284749062013 59.63961352663753 0 0 0
7201 19 1 5.446161669205797 13.567927497437333 54.242347407711975 1 0 1
1191 16 1 12.911202576127904 14.615747680651987 50.65301533703053 0 0 1
1416 47 1 10.701023426067799 15.907351123954806 53.79683601183586 0 0 1
4262 30 1 17.507390078545303 26.448799523060462 53.27162774961987 0 0 1
7971 60 1 0.724562230763422 24.04679272724509 48.081245265718465 0 0 0
2256 3 1 8.627566613679903 0.578408889904118 47.66784746087431 0 1 0
461 4 1 5.212164709469105 6.687959010160617 45.904103332072076 0 0 0
237 3 1 17.127464645224038 5.5850473174876925 56.90120078526655 0 0 0
6985 54 1 1.7239257059086301 10.676574305877395 54.345980511005266 1 0 0
2610 21 1 12.112202293226932 5.758041315381191 46.39002655911417 0 0 1
730 5 1 16.162144661905288 11.157848585475358 54.969924759223325 0 0 0
236 3 1 16.31718297268418 5.224585593397576 55.72069708718806 0 0 0
6631 12 1 7.687603310949957 5.426127037601954 55.94352223578757 0 0 0
2910 22 1 17.893505421049152 11.77132940888755 50.85299305522234 1 0 1
475 4 1 13.003746839823975 8.650551361838174 58.127661437474615 0 0 0
6623 12 1 2.228322046932817 5.470693165116076 49.574795376987424 0 0 0
472 4 1 11.33232431373854 7.365445986552652 55.4268200208353 0 0 0
1725 13 1 11.247545236943646 23.825268134069425 50.10165066720769 0 0 0
976 7 1 17.96047987728325 16.422409512579392 58.83150148143653 0 0 0
4260 30 1 16.233713820912072 25.74765399662926 51.51089299378399 0 0 1
2038 3 1 13.161758488650873 1.3629957948559699 51.49222836072549 0 1 0
8419 63 1 2.221900353453931 0.0934991051573569 48.465297625684784 1 1 1
7936 59 1 1.463839428798337 20.457312281560974 53.613412127405496 1 0 1
234 3 1 15.342697363940164 6.314879184499317 53.636451528967285 0 0 0
2273 31 1 13.578211987563758 2.3092321542352754 46.211121400402966 0 0 0
1712 8 1 13.324927269928718 21.28126426778023 58.13877631658716 1 0 1
1731 13 1 14.897467351602637 23.838602960430556 55.73388038066943 0 0 0
1701 8 1 5.803410371227876 21.678517443420876 48.74286709514802 1 0 1
2614 21 1 15.691816855115784 6.5919777951269785 48.85716999241113 0 0 1
4002 51 1 4.663375305034129 7.587200708469622 59.0986694633975 0 0 0
7937 59 1 1.991024921672326 20.436202125184494 55.09026940757744 1 0 1
723 5 1 11.899033987378942 8.399186666277158 49.34117518821682 0 0 0
8189 62 1 1.4342439345766511 23.898132069924007 53.442292973079084 0 0 0
2907 22 1 15.368541755299521 10.631952089636108 48.60934477198252 1 0 1
1 55 1 8.46434992744532 3.022672254950852 52.177030544266906 0 0 0
727 5 1 13.30586653813655 10.208327105691819 52.67010656501072 0 0 0
8390 63 1 6.970366632932787 1.5631546498501723 55.39867159440719 1 1 1
8417 63 1 0.14799132473321414 1.3763329563982036 47.63388275408786 1 1 1
7203 56 1 7.258148410984965 15.35801390058992 54.982171695544984 1 0 0
2911 22 1 18.4447927625136 11.815164621713997 52.29245300725553 1 0 1
9 55 1 13.98699384945181 3.7981825172972403 58.72378988801067 0 0 0
1966 64 1 13.383964860464754 26.61476861170247 56.9132538917346 0 0 0
1561 48 1 2.266882263003507 1.7128603152778403 55.715492030433516 0 0 0
1963 64 1 10.658914184575824 24.953885810335002 54.97065651524106 0 0 0
1968 64 1 13.18940314751893 26.543762786740817 59.28238977932265 0 0 0
2905 22 1 13.350540481921946 10.170260420536971 47.08513635969927 1 0 1
5386 32 1 0.841403570073084 14.068456091963915 58.99469239390926 1 0 0
7983 60 1 9.10302513010194 22.66048440859619 57.10317582653884 0 0 0
2618 21 1 18.680331601465145 7.831331415017903 53.04729171561626 0 0 1
2044 3 1 17.045051056901425 1.952889055797127 56.07156671966214 0 1 0
1703 8 1 7.327566758669577 20.163722443228163 49.9763976651016 1 0 1
223 55 1 7.1145472859740915 3.233547435460356 49.97335575386263 0 0 0
3620 56 1 16.747006899308467 21.087389196938453 50.855016343922976 0 0 0
722 5 1 10.39184408424038 8.197430300405225 49.117810687489296 0 0 0
6991 54 1 5.428140393401634 13.456546012340365 59.20529487289261 0 0 0
2616 21 1 17.073110836329256 7.049725650980117 51.148106845432366 0 0 1
2258 3 1 10.71876663492103 0.2767050124735615 48.97664836514309 0 1 0
8193 62 1 4.113978687795349 25.887659943825287 57.40214730230459 0 0 0
7976 60 1 3.491758921180518 21.99193096995176 51.378575017071945 0 0 0
733 5 1 18.105400630856398 10.681181707547296 57.055757414941056 0 0 0
1965 64 1 12.099049071092654 25.723084356415775 56.910672242257476 0 0 0
1970 64 1 15.267373103871687 0.3156521461226222 59.609097685740885 0 1 0
7437 26 1 5.154796106861204 17.313394802772475 59.60365626575097 0 0 0
8425 63 1 5.635128325075783 0.2549093165222315 53.899563120630916 1 1 1
1432 9 1 11.89536903959579 18.51895532835798 49.47719970390815 0 0 0
2904 22 1 12.91638936669275 10.671920507472164 45.74769137661505 1 0 1
1417 9 1 11.402569748066655 15.893120296233949 55.1623951490213 0 0 0
1409 47 1 7.213084333137191 15.650115608861688 48.02997514566176 1 0 1
6943 49 1 5.794639418711392 9.276064676715878 54.643962006076634 0 0 0
3172 24 1 17.2475349136278 15.659799717015423 49.81183716253675 0 0 0
8422 63 1 3.2157446815583253 1.735737411438468 51.713713550800456 1 1 1
755 60 1 9.671593720639008 12.51837005821947 54.44091685516227 0 0 0
1199 7 1 18.21991452891689 16.067364107364018 57.34291146398391 0 0 0
4957 48 1 2.744284522195092 3.2671846596889678 57.63597793016375 0 1 0
469 4 1 9.994914590836247 6.943175598043351 53.17762279639437 0 0 0
1420 9 1 13.281888857695936 18.018113755392964 57.44582465410785 0 0 0
6632 12 1 7.615559564460197 4.4379385344080085 57.15349069812313 0 0 0
7416 19 1 0.48023389619422213 14.72980333627512 46.6915889841398 1 0 1
5551 25 1 0.7992127065172718 17.569528438999082 59.05563224966687 1 0 1
7431 26 1 2.434754753077184 15.510069844475685 54.03189201295796 1 0 0
6946 49 1 7.696569483985909 9.66492070490921 57.02979959308089 0 0 0
2040 3 1 14.169132234542882 0.6108358849143337 53.74157373112864 0 1 0
6987 54 1 2.182801194833943 11.96149189353621 56.52521498928261 0 0 0
6983 54 1 0.8099290317729066 12.43330140364466 53.04229737468612 1 0 0
1422 9 1 14.07404766809541 16.60592502152588 59.33835641449658 0 0 0
6628 12 1 4.7753036322270335 5.06128558625124 54.779678333953335 0 0 0
8195 62 1 6.048598587446067 25.351546523072866 58.93076655635425 0 0 0
2612 21 1 14.178097305576445 6.764623394285054 46.81723548610057 0 0 1
6680 51 1 0.8886918177673974 7.042529113531443 53.11358212658404 0 0 0
7671 58 1 4.804256496409427 17.957153446555836 52.97654175194604 0 0 0
977 7 1 17.49175605847154 15.040035673713652 59.17090046252357 0 0 0
1428 9 1 9.189599661361308 18.930476796368545 46.84333288558205 0 0 0
1436 9 1 14.043384509901212 18.86550462343677 52.956274324516585 0 0 0
467 4 1 7.863481057335205 7.430274630686951 52.01958905973868 0 0 0
6944 49 1 6.2980042862157 10.640517697085079 55.02392627217809 0 0 0
7419 19 1 2.53261673256867 13.981605080850164 48.816171193565644 1 0 1
1960 64 1 8.94711617068041 25.315859670995476 52.96680693599625 0 0 0
3528 51 1 1.9109439836869502 6.200684908077967 56.62960422908769 0 0 0
464 4 1 6.338275946245409 7.873264298389641 48.50136863569626 0 0 0
7980 60 1 6.145416585047922 23.729002724698844 55.26399088536893 0 0 0
1961 64 1 9.366070567171064 26.56049302865743 53.59181777975291 0 0 0
2045 3 1 17.17602743354415 2.2630673376206696 57.46932369318018 0 1 0
971 60 1 6.033559203345949 11.775421672464686 47.285437593041074 0 0 0
466 4 1 6.740982269960092 7.3591593784454625 50.94370748199157 0 0 0
8303 48 1 4.086908468772616 2.5659192999995644 57.74187062745542 0 1 0
1196 7 1 16.530520072422366 14.814458111867365 54.21769091277992 0 0 0
7675 58 1 7.689980828971748 19.452645928483573 56.38323381704995 0 0 0
6634 12 1 8.665925106724519 6.2053424911416295 58.5324424885767 0 0 0
7199 19 1 5.149409889348968 14.629281257681136 52.107322800322194 1 0 1
7979 60 1 6.32571734129536 22.944420692666494 54.04934273353653 0 0 0
6621 12 1 1.620965044632796 4.291420063982895 47.476000548067034 0 0 0
230 3 1 13.006404182023624 4.843804827724922 50.54367138646398 0 0 0
754 60 1 10.260140265507935 12.325215725476857 53.06180462383152 0 0 0
1412 47 1 8.398481623859697 15.259463581580642 50.54258350664509 1 0 1
7676 58 1 9.117758102574339 18.84497635138949 56.143497049107395 0 0 0
1187 16 1 9.175625018190125 12.707429927690958 48.10231297710763 0 0 1
8394 63 1 9.611216321670382 0.8397975859900902 59.30751882720628 1 1 1
2279 31 1 16.95138877761207 2.5765935280869496 51.282725303607776 0 0 0
2651 20 1 18.33026128524608 9.33591437676383 45.96969376704358 0 0 0
8421 63 1 3.1558541311430623 1.3680100470142984 50.37558677695553 1 1 1
1945 13 1 8.809229364280514 23.4554434860795 47.15970523388373 0 0 0
7208 56 1 10.123226934044043 14.583950242447623 58.61719713376357 0 0 0
7677 58 1 10.184046465646828 19.29529138028829 57.192709182018305 0 0 0
7666 58 1 0.3201497167446121 18.81645828746323 49.04405838472178 0 0 0
8190 62 1 1.879647722910807 23.661306315044687 54.94488770661056 0 0 0
6633 12 1 8.766935832095738 4.728951200764389 58.077827083771496 0 0 0
1440 9 1 16.193495915203243 20.50545327299617 55.785251095653805 0 0 0
1723 13 1 10.246477636502863 21.90059170560106 48.552186779463035 0 0 0
1732 13 1 15.79190638261808 24.153925796080404 56.96427684441824 0 0 0
6947 49 1 8.940962262093691 10.031835465032758 57.90891564800369 0 0 0
6988 54 1 3.5860961454828857 11.468308281837633 56.76379742382239 0 0 0
232 3 1 13.262431373000132 5.45915987203698 53.00320780449785 0 0 0
1724 13 1 11.385611904374736 22.613101911349123 49.27456968192946 0 0 0
760 60 1 14.455270321209577 13.68479235600701 58.08968584174673 0 0 0
8426 63 1 5.567545165861677 1.4605260831317348 54.795517385037016 1 1 1
1198 7 1 17.020426102752666 16.20497045051281 56.40571601499347 0 0 0
2275 31 1 15.061961549872867 1.6130314767293652 48.092841896424474 0 0 0
7975 60 1 3.6559307326261568 23.458771836482306 50.9422011348186 0 0 0
7 55 1 12.539212483952326 4.102874209256607 56.7542160946781 0 0 0
8391 63 1 7.080547315117683 0.4091815148625074 56.28367117300999 1 1 1
7974 60 1 2.46033168389481 23.72889784121628 50.15199068380436 0 0 0
6629 12 1 6.01304749242866 5.488843864112351 54.1924336388141 0 0 0
7197 19 1 3.616232367673582 13.195349043766354 51.035833101170944 1 0 1
8192 62 1 3.198561564379818 24.85724488822 56.70305178288627 0 0 0
7204 56 1 7.172484416554555 14.328541482938567 56.02833734038176 1 0 0
7198 19 1 4.56952236604079 14.422934763927614 50.76460419505352 1 0 1
1957 64 1 6.549220236747616 24.620776598718752 49.92043455678968 0 0 0
7985 60 1 9.99780108683359 23.516112212873164 59.4189430227579 0 0 0
1407 47 1 4.90742678095799 16.608051485352473 47.72531168527617 1 0 1
2615 21 1 16.394507484548196 7.490979435963059 49.85718653807538 0 0 1
3167 24 1 13.082007982425777 14.921009954101159 46.393512822531896 0 0 0
6948 49 1 8.67284950929195 11.330269729386485 58.71785215180206 0 0 0
3616 56 1 13.987840003406218 21.29206530041647 47.849516859004936 0 0 0
235 3 1 16.44320856109269 6.26573440579882 54.65411863961846 0 0 0
721 5 1 9.810407836661396 9.365657311589246 48.46506128447653 0 0 0
4093 51 1 2.907662390303827 6.674692267954605 57.503486912749956 0 1 0
7670 58 1 3.4950237045473243 18.1450290738712 52.14722789241465 0 0 0
7669 58 1 3.7446988336683082 18.71996079107038 50.726606062325736 0 0 0
900 51 1 4.8516802548444815 8.332798626452696 57.71695407086419 0 0 0
1421 9 1 14.01008136777746 18.077571710011302 58.741168425699854 0 0 0
972 60 1 5.903935174097066 12.117900581088952 48.7188802602882 0 0 0
1435 9 1 14.570838550713521 17.782284605297047 52.104926665358875 0 0 0
6942 49 1 4.52582943147306 8.959742045246367 53.92229053735197 0 0 0
7417 19 1 0.23554869539637321 14.820356603112325 48.12722323012272 1 0 1
4259 30 1 16.49909838346877 25.513570098937784 50.0362735370975 0 0 1
2611 21 1 13.103980160080656 5.8725678082123345 47.50000413012723 0 0 1
7433 26 1 2.4860744771543937 15.72426776525786 56.415007357642075 1 0 0
2035 3 1 9.803856065546636 0.59746426779341 50.13664166618031 0 1 0
2276 31 1 15.261977821931048 3.214889192763424 48.16466692093356 0 0 0
1706 8 1 9.131425147285494 21.46022209093695 53.05444833542927 1 0 1
468 4 1 8.975807059849576 6.378842848198246 52.17649621083881 0 0 0
2278 31 1 15.949410822554762 2.523602435525579 50.19498627558097 0 0 0
761 60 1 14.20585878088386 12.63044337609062 58.99895588375937 0 0 0
1419 9 1 12.565902234911174 16.73466934689585 57.035398749315654 0 0 0
6622 12 1 2.1861444194076345 4.199011394769786 48.86630756499927 0 0 0
3614 56 1 13.095963688291588 19.71209067254881 46.30582092762944 0 0 0
471 4 1 10.680953669158102 8.52843999774962 54.66183124787391 0 0 0
4258 30 1 15.951056821576817 24.318389667660867 49.25630726775431 0 0 1
731 5 1 16.025301686071817 10.160904412329252 56.01876306947659 0 0 0
1730 13 1 15.723810808745613 23.315842428631605 54.49532564169634 0 0 0
6627 12 1 4.17982213312881 4.436050990894132 53.57049004570341 0 0 0
1406 47 1 3.678075063773616 16.822389227593188 46.921135251831195 1 0 1
3170 24 1 15.948374084776994 16.786393471095444 48.07974960199256 0 0 0
7938 59 1 3.459169424691844 20.363007405098042 55.144441143977666 1 0 1
233 3 1 14.219306226641732 5.472339903191924 54.20834518616971 0 0 0
221 55 1 5.699059960263254 2.4858479241529947 48.18687948698054 0 0 0
465 4 1 7.327599547573933 7.591851816993696 49.54432234396544 0 0 0
219 55 1 4.86904276953364 2.434011236086467 45.71184820289986 0 0 0
6938 49 1 2.598702508325962 8.5911786596915 49.526807375820674 1 0 0
729 5 1 15.5843432810631 10.800746062337014 53.55445804462818 0 0 0
1194 16 1 14.221793491167103 14.262576814116962 52.933114782761336 0 0 1
758 60 1 12.900864312300202 12.397068554848296 56.71922482625338 0 0 0
2280 31 1 17.072607870804273 3.874614238853378 52.019740705343594 0 0 0
1727 13 1 13.14631847130918 23.593154370930655 51.71580441041831 0 0 0
7434 26 1 3.931887984211339 16.175011740882013 56.236351289604116 1 0 0
222 55 1 5.867289741159027 3.538075137739211 49.38632588264914 0 0 0
8418 63 1 1.5591293314622925 0.8878587496611642 47.26551899227801 1 1 1
7206 56 1 8.878034780934627 15.757108506327697 57.012775480020416 1 0 0
725 5 1 13.403717717533953 8.490286536315505 51.144331101810025 0 0 0
6626 12 1 4.435406949415119 5.6378778153757025 52.59800347782999 0 0 0
1418 9 1 12.600246891852509 16.74656801585243 55.48806685544099 0 0 0
5078 38 1 1.0770548027659004 9.185834144703323 59.518689652367705 0 0 0
1958 64 1 7.7896109523263615 24.540677955633143 50.73324062464901 0 0 0
228 3 1 10.610674627037096 4.403044852059534 50.1445574887529 0 0 0
1962 64 1 10.549533038854756 26.247615847662995 54.47260861181826 0 0 0
8 55 1 12.701447484633634 4.505585751925848 58.137106893428054 0 0 0
6989 54 1 3.6857538175760074 12.069712317246378 58.15322986476588 0 0 0
238 3 1 17.684740753766224 6.928222471813473 56.820348082627056 0 0 0
2613 21 1 14.998686993700066 7.51782475305841 47.833601124017115 0 0 1
1430 9 1 10.57478770514704 17.252339202604173 48.05424385520568 0 0 0
3169 24 1 14.934283387766815 15.730743996913041 47.9290634733629 0 0 0
225 3 1 9.618347528884506 5.066336128269375 48.09659551171963 0 0 0
970 60 1 4.717851593526232 11.664340379524763 46.670258830028125 0 0 0
975 60 1 8.090724126141202 11.793742523707383 51.53651110598202 0 0 0
1413 47 1 9.044095064285115 15.53076515639044 51.88787971744571 0 0 1
1437 9 1 14.87524418562277 20.084267630348535 53.386432170621774 0 0 0
2272 31 1 12.126407927139384 2.066252804090593 45.91167969374117 0 0 0
7972 60 1 0.7377733178974326 22.4700877523274 48.4472987256885 0 0 0
7207 56 1 9.73257630352145 15.99126142635311 58.265555202326155 0 0 0
1967 64 1 13.978898687014317 0.5421818569859962 58.07042357068107 0 1 0
1186 16 1 10.059362966377666 12.773329961278789 46.93011474349232 0 0 1
476 4 1 14.270835977875983 8.107194896228755 57.84425404265363 0 0 0
2039 3 1 13.16433958083234 0.1771471669425789 52.608062013540554 0 1 0
719 5 1 8.927092160114883 8.330430343906093 46.58994577843105 0 0 0
1434 9 1 13.584733430706796 17.620168299125087 50.982635515725384 0 0 0
6046 39 1 0.6924694466663932 22.719524788772354 58.06258568142193 1 0 1
7674 58 1 6.6003183981694455 18.84330163403875 55.424163522211025 0 0 0
757 60 1 12.112219277357147 12.75199069609889 55.45794173290031 0 0 0
3619 56 1 17.143726818188398 21.110052768699255 49.467949931936154 0 0 0
1231 48 1 4.8517691347933445 4.184660123110404 59.38004858337251 0 1 0
7939 59 1 3.5450940307392176 19.747692778447067 56.56733370751874 1 0 1
724 5 1 12.234642484742306 9.262741922231681 50.51706282213766 0 0 0
3615 56 1 14.239765312291741 19.985594052719247 47.254899454873325 0 0 0
8191 62 1 2.892759259782544 24.75074052085108 55.22064140498444 0 0 0
7941 59 1 4.44854674171238 21.699737362062233 57.625734320367044 1 0 1
7978 60 1 4.939821495745174 22.83853544823084 53.282519481268345 0 0 0
6624 12 1 2.6517539199107105 5.2899677254401105 51.02430628063533 0 0 0
1185 16 1 9.159678250397159 12.762248132879154 45.69707358055004 0 0 1
1964 64 1 11.938285558858983 24.855052075581973 55.689768076834596 0 0 0
6936 49 1 1.205955127303643 10.309661209642025 48.4126204401781 1 0 0
7205 56 1 7.8928724775964225 14.717569711218967 57.228611067149046 1 0 0
7905 59 1 5.283850636731225 20.58617473863622 58.060766651486034 1 0 1
2041 3 1 13.636517806824072 1.8640076342366412 54.297772115062116 0 1 0
759 60 1 14.077672128519715 13.418315032583084 56.65677665441686 0 0 0
7418 19 1 1.5030735609287504 15.09389976379905 48.815053382273184 1 0 1
4254 30 1 12.489774676170939 24.530268272851586 46.02092974017839 1 0 1
3227 48 1 0.30940172363352964 2.758872315766269 54.51842868196805 0 0 0
3597 29 1 17.54092844363639 19.04212571948826 46.40209230436685 0 0 1
1405 47 1 4.107853742252025 17.047199838976876 45.56718763287846 1 0 1
8187 62 1 0.2182068702603048 25.297656917228515 52.066935296185726 0 0 0
6635 12 1 9.28269181455439 6.741841786957775 59.76424104662325 0 0 0