LAMMPS data file via write_data, version 29 Oct 2020, timestep = 32000000

10752 atoms
2 atom types
10752 bonds
3 bond types
10752 angles
3 angle types
10752 dihedrals
3 dihedral types

-1.4019591925125496e-01 3.1008115919238300e+01 xlo xhi
-1.2113307625790526e-01 2.6791853076229280e+01 ylo yhi
 4.7590274988842225e+00 2.7824033250033085e+02 zlo zhi

Masses

1 14
2 15

Pair Coeffs # lj/cut/omp

1 0.0914 3.95
2 0.1947 3.75

Bond Coeffs # harmonic/omp

1 449.5 1.53
2 449.5 1.53
3 449.5 1.53

Angle Coeffs # harmonic/omp

1 62.0967 114
2 62.0967 114
3 62.0967 114

Dihedral Coeffs # opls/omp

1 1.411 -0.271 3.145 0
2 1.411 -0.271 3.145 0
3 1.411 -0.271 3.145 0

Atoms # molecular

1             1             1       16.1685   -0.00935811         277.9
2            1            1      16.6151      0.80702      5.64328
3            1            1      16.8875    0.0136782      6.94804
4            1            1      17.2106     0.853559      8.20237
5            1            1      17.5834     0.223596      9.51806
6            1            1      17.7118      1.02385      10.7835
7            1            1      18.3364     0.222545      11.8885
8            1            1      18.5659      1.10988      13.1364
9            1            1      19.0929     0.394333      14.3733
10            1            1      19.2874       1.3563      15.5942
11            1            1      19.8318     0.646694      16.8044
12            1            1      19.8103      1.53507      18.0464
13            1            1      20.4125     0.748802      19.2603
14            1            1      20.4708      1.47342      20.5822
15            1            1      20.6886     0.594484      21.7939
16            1            1      20.9367      1.41765      23.0804
17            1            1      21.0221     0.492983       24.329
18            1            1      21.4584      1.21462      25.6346
19            1            1      20.8211     0.766142      26.9821
20            1            1      21.4068      1.37332      28.3059
21            1            1       21.036     0.664802      29.5447
22            1            1      21.3777      1.43929      30.7588
23            1            1      20.7004      0.92613       31.997
24            1            1       20.993      1.62397      33.2726
25            1            1      20.2347     0.889238      34.3427
26            1            1      20.3625      1.76864      35.6215
27            1            1      19.8247       1.1357      36.8994
28            1            1      19.5955      2.09608      38.0592
29            1            1      18.8753      1.45419      39.2963
30            1            1      18.8663      2.23556      40.5807
31            1            1       18.089      1.44919      41.6305
32            1            1      18.0187      2.10405      42.9629
33            1            1      17.2279      1.38542      44.0339
34            1            1      17.3388      2.08799      45.3872
35            1            1      16.4277      1.61218      46.5192
36            1            1      16.8086      1.71673      47.9172
37            1            1      15.6172      1.30554      48.8543
38            1            1      15.8229      1.95332      50.2582
39            1            1      14.8022      1.48239      51.1992
40            1            1      15.0896      1.97327      52.6258
41            1            1      14.2666      1.25537      53.7039
42            1            1      14.5518      1.72476      55.1313
43            1            1      13.8227      0.98941       56.188
44            1            1      14.0668      1.43753      57.6032
45            1            1      13.1289      0.84145      58.6271
46            1            1      13.2294      1.40183      60.0679
47            1            1      12.3608     0.673781      61.0717
48            1            1      12.3612      1.26969      62.4446
49            1            1      11.4294     0.686746      63.5453
50            1            1      11.3996      1.51472      64.8419
51            1            1      10.7716     0.932115      66.0171
52            1            1      10.8036      1.81895      67.2754
53            1            1      10.2114       1.0048      68.5261
54            1            1      10.0254      1.70643      69.8645
55            1            1      9.22053     0.968754      70.9449
56            1            1      9.26114      1.70504      72.2701
57            1            1      8.50401     0.867995      73.2798
58            1            1      8.50532      1.69538      74.5825
59            1            1       7.7098     0.953805      75.6434
60            1            1      7.34872      1.75655      76.9023
61            1            1      6.79733     0.974364      78.0939
62            1            1      6.41753      1.77694      79.3515
63            1            1      5.97849     0.857642      80.4725
64            1            1      5.52237      1.63773      81.6761
65            1            1      4.99964     0.732757       82.751
66            1            1      4.77081      1.45729      84.0823
67            1            1      4.13132     0.590495      85.1659
68            1            1       3.9585       1.4285      86.4571
69            1            1      3.53173     0.646706      87.7091
70            1            1      3.21944      1.43501      88.9368
71            1            1      2.78831     0.539063      90.0922
72            1            1       2.2381      1.26984      91.3494
73            1            1      2.32398     0.518417      92.6514
74            1            1      1.89138      1.38718      93.8381
75            1            1      1.67462     0.722691      95.1669
76            1            1      0.98474      1.47805      96.2819
77            1            1     0.919436     0.704425      97.6505
78            1            1     0.423108      1.54812      98.7686
79            1            1  -0.00500828     0.667701      99.9665
80             1             1       30.7658        1.4799       101.214
81             1             1       30.3683      0.595271       102.295
82             1             1       30.0245        1.3994       103.556
83             1             1       29.5354      0.521957       104.717
84             1             1       29.3207       1.25621       106.013
85             1             1       28.6681      0.430898       107.114
86             1             1       28.8235       1.01712       108.527
87             1             1        28.081      0.298877       109.645
88             1             1       28.0208       1.19283       110.845
89             1             1       27.1734       0.59085       111.966
90             1             1       27.2979       1.33604       113.301
91             1             1       26.6059      0.648193       114.503
92             1             1       26.5702       1.31758       115.887
93             1             1       25.9365      0.624944       117.086
94             1             1       25.8533       1.46254       118.347
95             1             1       25.0448      0.795051       119.412
96             1             1        24.928       1.45666       120.737
97             1             1       24.0615      0.878846       121.835
98             1             1       24.0761       1.54816       123.213
99             1             1         23.31      0.775686       124.319
100             1             1       23.3572       1.40759        125.76
101             1             1       22.5813      0.665034       126.797
102             1             1       22.6647       1.38123       128.129
103             1             1       21.8728      0.752198       129.236
104             1             1       21.5261       1.62649       130.422
105             1             1       21.0175      0.941123       131.671
106             1             1       20.4139        1.7556       132.793
107             1             1       20.0069      0.976098       134.007
108             1             1       19.7949       1.79223       135.215
109             1             1       19.5075      0.981938       136.425
110             1             1       19.2932       1.84945       137.704
111             1             1       18.6514       1.10709       138.922
112             1             1       18.5681       1.90085       140.251
113             1             1       18.0412       1.04545       141.366
114             1             1        17.951       1.71798       142.699
115             1             1       17.3396      0.849733       143.806
116             1             1       17.0774       1.65777       145.106
117             1             1       16.6327      0.797516        146.25
118             1             1        16.304       1.60901       147.478
119             1             1       16.0811      0.765631       148.726
120             1             1       15.7917       1.62978        149.99
121             1             1       15.4103      0.956161       151.247
122             1             1       14.8711       1.84586       152.356
123             1             1       14.6467       1.07525       153.686
124             1             1       14.5243       1.91716       154.992
125             1             1       14.0153       1.14631       156.194
126             1             1       13.8678       1.88644       157.501
127             1             1       13.7451       1.03386       158.751
128             1             1        13.811       1.82868        160.02
129             1             1       13.5657      0.883324       161.175
130             1             1       13.4237       1.64198       162.481
131             1             1       13.2935      0.705894       163.693
132             1             1       13.4591       1.46076       164.961
133             1             1         13.31      0.671117       166.285
134             1             1       13.5959        1.5603       167.488
135             1             1        13.557      0.874545       168.878
136             1             1       14.0798       1.64367       170.053
137             1             1        13.856      0.808991       171.277
138             1             1       14.4042       1.38823       172.558
139             1             1       14.1017      0.491452       173.791
140             1             1       14.9515      0.957669       174.958
141             1             1       14.7417      0.387077       176.341
142             1             1       15.3877        1.2263       177.413
143             1             1       15.8207      0.513824       178.722
144             1             1       16.2506       1.38529        179.92
145             1             1        16.845      0.542558       181.077
146             1             1       17.2163       1.36112       182.296
147             1             1       17.3676       0.39414       183.486
148             1             1       17.7231       1.25153         184.7
149             1             1       17.7908      0.370173       185.954
150             1             1       18.3277       1.12228       187.152
151             1             1       18.5788      0.395728       188.469
152             1             1       19.2972       1.24569       189.502
153             1             1       19.3363      0.632527       190.913
154             1             1       20.2357       1.31414       191.933
155             1             1        20.132      0.665172       193.304
156             1             1       20.9269       1.39485       194.325
157             1             1       21.1025      0.555602       195.589
158             1             1       21.7178       1.35264       196.796
159             1             1       22.0221      0.462015       197.996
160             1             1       22.5417       1.18564       199.244
161             1             1       22.9216      0.454625       200.547
162             1             1       23.1793       1.41718       201.713
163             1             1       23.8001       0.67574       202.918
164             1             1       23.9158       1.46231        204.19
165             1             1       24.0645      0.516412       205.333
166             1             1       24.5133       1.36406       206.592
167             1             1       24.9053      0.562601       207.809
168             1             1       25.0159        1.3327       209.086
169             1             1       25.5964      0.510902       210.182
170             1             1       25.6612       1.29192       211.517
171             1             1       26.2016        0.4932       212.657
172             1             1        26.639       1.26735       213.943
173             1             1       27.0843      0.443804       215.154
174             1             1       27.2957       1.20329       216.465
175             1             1       27.8871      0.330483       217.547
176             1             1       28.2445       1.12658       218.799
177             1             1        28.651       0.25585       220.057
178             1             1       29.1101       1.12262       221.198
179             1             1       29.5856      0.346268       222.376
180             1             1       29.8483       1.26913       223.578
181             1             1       29.9433      0.398661       224.829
182             1             1       30.3052       1.05538       226.158
183             1             1     -0.162536        0.1298       227.147
184             1             1      0.110032      0.942124       228.467
185             1             1      0.610455      0.089422       229.666
186             1             1      0.816174      0.929051       230.948
187             1             1          1.33      0.108058       232.106
188             1             1       1.55418      0.841994       233.462
189             1             1       2.34899      0.122842       234.502
190             1             1       2.38527      0.828748       235.893
191             1             1       2.89156    -0.0588951       236.996
192             1             1       3.14154      0.767046       238.249
193             1             1       3.43111    -0.0645612       239.514
194             1             1       4.11829      0.814689       240.561
195             1             1       4.31372      0.166349       242.003
196             1             1       4.93406       1.11734       243.034
197             1             1       5.31751      0.236458       244.248
198             1             1       5.73187       1.00607       245.492
199             1             1       6.22102     0.0663145       246.624
200             1             1       6.78677      0.851369       247.807
201             1             1       7.01229     -0.071598       248.964
202             1             1       7.02148      0.600721       250.328
203             1             1       7.67467       26.6806       251.449
204             1             1        7.8353      0.528862       252.782
205             1             1       8.69203       26.6764       253.788
206             1             1       8.78556      0.521669       255.171
207             1             1        9.6686       26.6083       256.105
208             1             1       9.43764    0.00776328       257.546
209             1             1       10.4148        26.278       258.551
210             1             1       10.0996       26.7436       259.985
211             1             1       11.1661       26.6198       261.017
212             1             1       10.8471      0.294054       262.389
213             1             1       11.9737    -0.0347937       263.319
214             1             1       11.7905      0.432655       264.775
215             1             1       12.9525      0.142179        265.71
216             1             1       12.5452       0.50561       267.146
217             1             1       13.6261      0.212399       268.184
218             1             1       13.3006      0.728876       269.563
219             1             1       14.0104     0.0541133       270.711
220             1             1       14.2082      0.909662       271.964
221             1             1       14.6635     0.0089418       273.103
222             1             1       15.5164      0.754184       274.141
223             1             1       15.8511    -0.0403573         275.4
224             1             1       16.0938      0.780386       276.622
225             2             1       18.8296       3.32329         272.7
226             2             1       18.8181       2.69144       274.107
227             2             1       19.6821       3.25173       275.228
228             2             1         19.64       2.49064       276.544
229             2             1       20.4391       3.18124       277.668
230             2             1       20.3176       2.56537       5.54243
231             2             1       21.3168       3.12313        6.6021
232             2             1        21.046       2.66425       8.02269
233             2             1       21.9568       3.11112        9.1972
234             2             1       21.4921       2.68177       10.5776
235             2             1       22.4511        3.1934       11.6715
236             2             1       22.2099       2.92704       13.1288
237             2             1       23.2432       3.49372       14.1279
238             2             1       23.1018       2.93726       15.5877
239             2             1       23.7944       3.71938       16.6957
240             2             1       23.7629       3.00818       17.9919
241             2             1        24.232       3.87714       19.1729
242             2             1       24.4074       3.11691       20.5024
243             2             1       24.8867       3.94166       21.6448
244             2             1       24.5842       3.36567       23.0313
245             2             1       25.1219       4.17297       24.2004
246             2             1       24.9833       3.53889        25.605
247             2             1       25.4832       4.23657       26.8455
248             2             1       25.2723       3.35688       28.0347
249             2             1       25.5743       4.08567       29.3735
250             2             1        24.922       3.33404       30.4938
251             2             1        24.974       4.12244       31.7892
252             2             1       24.2006       3.47454       32.9431
253             2             1       24.4587       4.15875       34.3431
254             2             1       23.6755       3.64901       35.5091
255             2             1       23.9364       4.24056       36.8409
256             2             1       23.1776       3.39924       37.8599
257             2             1       23.1335       4.17705       39.2066
258             2             1       22.3723       3.45663       40.2952
259             2             1       22.2959       4.21816       41.6156
260             2             1       21.5996       3.51539       42.7743
261             2             1       21.6597       4.27105       44.0696
262             2             1       20.8321       3.48273       45.1593
263             2             1       20.6965       4.22059       46.5178
264             2             1       20.1106       3.43776       47.7009
265             2             1       20.0543       4.24016       49.0079
266             2             1        19.351       3.43329       50.0903
267             2             1       19.4731       4.14346       51.4501
268             2             1       18.5647       3.57465       52.4996
269             2             1       18.7927       4.32673        53.827
270             2             1        17.996       3.66481       54.9242
271             2             1        18.057       4.48958       56.2094
272             2             1       17.3062       3.73431        57.282
273             2             1       17.3356       4.18807       58.7619
274             2             1       16.3741       3.51762       59.7949
275             2             1       16.8158       3.86309       61.2411
276             2             1       15.7826       3.47301       62.2355
277             2             1       16.0294       4.04217       63.6097
278             2             1       14.9408       3.65293       64.6177
279             2             1       15.1851       4.23508       66.0298
280             2             1       14.2427       3.59764       66.9903
281             2             1       14.6162       3.89855       68.4608
282             2             1       13.4706       3.56109       69.3873
283             2             1       13.8218       3.93706       70.8233
284             2             1       12.7402       3.54765       71.8108
285             2             1       13.0341       3.86631       73.3016
286             2             1       12.0282       3.42154       74.3577
287             2             1       12.3725       3.93529       75.7417
288             2             1       11.6677       3.31464       76.8722
289             2             1       11.8829       3.91244       78.2916
290             2             1       10.7245       3.38129       79.1228
291             2             1       10.8883       3.90626       80.4778
292             2             1       9.64656        3.5352       81.3192
293             2             1       9.54964       4.35844       82.6152
294             2             1       8.73952       3.62027       83.6674
295             2             1       8.75195       4.18763       85.1243
296             2             1       7.94167       3.39909       86.1398
297             2             1         7.941       3.91766       87.5384
298             2             1       7.14427       3.21422       88.6724
299             2             1       7.14248       4.03424       89.9554
300             2             1       6.20897       3.26704       90.9296
301             2             1       6.32584       3.66277       92.4077
302             2             1       5.32125       3.04952       93.4128
303             2             1       5.50392       3.44554       94.8291
304             2             1        4.6944       2.85972       95.9208
305             2             1        4.7709       3.55675       97.3079
306             2             1       4.00175       2.87667       98.4853
307             2             1       4.12122       3.53915       99.8083
308             2             1       3.53316       2.68427       100.939
309             2             1       3.22032       3.49341       102.253
310             2             1       2.63468       2.66827       103.396
311             2             1       2.71579       3.50582       104.655
312             2             1       2.15856       2.86087       105.952
313             2             1       1.96646       3.69654       107.177
314             2             1       1.17317       3.00819       108.263
315             2             1       1.19669        3.6566       109.625
316             2             1      0.758812       2.81216       110.787
317             2             1      0.261438        3.6498       111.909
318             2             1       30.9064       2.81735       113.074
319             2             1       30.5182          3.61        114.34
320             2             1       30.3829       2.64162       115.536
321             2             1       30.2574       3.42823       116.837
322             2             1       29.6244        2.8137       118.078
323             2             1       29.6331       3.51813       119.452
324             2             1       28.6229        3.0528       120.587
325             2             1       28.8729       3.63769       121.985
326             2             1       27.6446       3.33156       122.819
327             2             1       28.0111       3.68885       124.265
328             2             1       26.8717        3.2777       125.136
329             2             1       27.2488       3.39591       126.585
330             2             1        26.097       3.19299       127.523
331             2             1       26.4885       3.20247       129.006
332             2             1       25.2459       3.18281       129.904
333             2             1       25.5491       3.82868       131.296
334             2             1       24.4334       3.48178       132.276
335             2             1       24.6901        3.9466       133.692
336             2             1       23.8148       3.38002       134.782
337             2             1       24.0993       3.81023        136.22
338             2             1       23.0464       3.34651       137.251
339             2             1        23.305       3.77668       138.707
340             2             1       22.2606       3.30366       139.801
341             2             1       22.6271       3.66024       141.281
342             2             1        21.503       3.34698       142.214
343             2             1        21.866       3.68647       143.611
344             2             1       20.7046       3.46294       144.617
345             2             1         21.22       3.48631       146.087
346             2             1       20.1468       3.16648       147.118
347             2             1       20.5536       3.50639       148.588
348             2             1       19.5743       3.04348       149.661
349             2             1       20.0603        3.4161        151.07
350             2             1       19.0271       2.94067       152.083
351             2             1       19.4029       3.47535       153.477
352             2             1       18.2523       3.23037       154.458
353             2             1       18.4727       3.98604       155.751
354             2             1       17.5128       3.51405       156.894
355             2             1       17.5358       4.31278       158.199
356             2             1       17.1851       3.52956       159.494
357             2             1       17.2717       4.48536       160.711
358             2             1       17.2371       3.56637        161.93
359             2             1       17.2417       4.23929        163.32
360             2             1       16.7216       3.43495       164.524
361             2             1       16.9688       4.23501         165.8
362             2             1       16.9819       3.37602       167.043
363             2             1       17.7158       3.91688       168.227
364             2             1       17.5425       3.08759       169.472
365             2             1       18.4844       3.48564        170.63
366             2             1       17.8837       3.15287       171.989
367             2             1       18.9073       3.49835       173.065
368             2             1       18.3677       3.03334       174.432
369             2             1       19.3104       3.45164       175.545
370             2             1       18.9475       3.23543       177.017
371             2             1       20.0819       3.58602       178.014
372             2             1       19.7724       3.14319       179.439
373             2             1       20.8819       3.50714       180.403
374             2             1       20.5141       3.05117       181.817
375             2             1       21.6125       3.22964       182.872
376             2             1       21.2118       2.77674        184.26
377             2             1       22.2706        3.0625       185.332
378             2             1       22.2291       2.46716       186.728
379             2             1       23.2698       3.06627       187.666
380             2             1       22.8482       2.76217       189.113
381             2             1       23.7099       3.47721       190.195
382             2             1       23.5712       2.65324       191.513
383             2             1       24.6771       2.90845       192.542
384             2             1       24.2887       2.76001       194.061
385             2             1       25.4165       2.99196       195.052
386             2             1       24.9735       2.97952       196.541
387             2             1        26.055       3.38286       197.524
388             2             1       25.6627       3.14421       199.003
389             2             1       26.7736       3.53687       199.938
390             2             1       26.4145       3.18068         201.4
391             2             1       27.3341       3.71569        202.45
392             2             1       27.1046       3.18994       203.868
393             2             1       28.1387       3.61975       204.937
394             2             1       27.8083       3.07237       206.335
395             2             1       28.7343       3.68798       207.407
396             2             1       28.5249       3.05789       208.835
397             2             1       29.7059       3.34453       209.775
398             2             1       29.3943         2.868       211.184
399             2             1       30.3442       3.41392       212.275
400             2             1       30.3031       2.79288       213.646
401             2             1    -0.0162141       3.46065       214.794
402             2             1     0.0157444       2.66692       216.111