LAMMPS data file via write_data, version 23 Jun 2022, timestep = 11111117

9706 atoms
2 atom types
9690 bonds
3 bond types
9674 angles
3 angle types
9658 dihedrals
3 dihedral types

0 36.89775039 xlo xhi
0 26.67072 ylo yhi
11.27417542329627 225.47742897674397 zlo zhi
0 6.739300760811822 0 xy xz yz

Masses

1 14
2 15

Pair Coeffs # lj/cut/omp

1 0.0914 3.95
2 0.1947 3.75

Bond Coeffs # harmonic/omp

1 449.5 1.53
2 449.5 1.53
3 449.5 1.53

Angle Coeffs # harmonic/omp

1 62.0967 114
2 62.0967 114
3 62.0967 114

Dihedral Coeffs # opls/omp

1 1.411 -0.271 3.145 0
2 1.411 -0.271 3.145 0
3 1.411 -0.271 3.145 0

Atoms # molecular

1 3 1 10.380827366133847 1.6221549967915303 21.60327854996358 0 0 0
2 3 1 10.78795594107573 0.9233631421624275 22.914607341903995 0 0 0
3 3 1 11.931284635734198 1.5480118373078884 23.68630545166267 0 0 0
4 3 1 12.24025999996945 0.7678575538124717 24.991038440352526 0 0 0
5 3 1 13.27760457578144 1.4646849423614128 25.850308220232012 0 0 0
6 3 1 13.626491904364329 0.7402140592211753 27.20658948723407 0 0 0
7 3 1 14.670798941532704 1.4119316343657482 27.998877796691854 0 0 0
8 3 1 14.956267517345928 0.7870849045064621 29.389185272461607 0 0 0
9 3 1 16.228650090003374 1.372130072985517 30.04968203809323 0 0 0
10 3 1 16.56393894995974 0.8228781369672884 31.41404942302145 0 0 0
1965 41 1 7.63149074488858 21.365134131329803 12.712054905256679 0 0 0
9256 61 1 2.719861516855556 20.640443420631044 18.458689389134573 0 0 0
5544 34 1 3.6953021442533385 7.600387817898146 32.125581832470345 0 0 0
1653 21 1 18.12145170470701 16.719962491997318 26.861956808316258 0 0 0
444 29 1 10.613334755251943 3.5873005319462394 16.846008430324396 0 0 0
1724 21 1 11.654038203767346 17.323772567377137 18.986766572565557 0 0 0
1130 19 1 16.368478724680248 11.97124597948871 23.448423188599854 0 0 0
9255 61 1 2.2696687449556103 21.29572713678158 17.138983133248775 0 0 0
220 3 1 6.276986316147901 0.8451377076027943 16.74240421290869 0 0 0
221 3 1 7.675364257412962 1.1587208431096698 17.262291253812293 0 0 0
222 3 1 7.766371145599381 0.9341236879411187 18.79877413730552 0 0 0
223 3 1 9.01440466564052 1.4554594148484825 19.406077783548334 0 0 0
224 3 1 9.192765714524633 1.0280748996713833 20.840112708760707 0 0 0
225 29 1 15.068617747969524 3.176873352032594 21.483825704981076 0 0 0
226 29 1 15.243647940896492 3.512905806465916 23.001531414082404 0 0 0
227 29 1 16.59162134925126 3.171012014108198 23.56944970090789 0 0 0
228 29 1 16.76919941274511 3.7070349440022263 25.001417988312973 0 0 0
229 29 1 17.97547430103657 3.1409420529829988 25.798533213837615 0 0 0
4848 2 1 16.62733009579787 25.49977986243162 11.743594522896931 0 0 1
2871 19 1 16.43241397495941 3.1880199690325566 11.8860505354743 0 0 1
5092 35 1 2.6006196922211395 2.10770021226459 31.170423526251977 1 0 0
8244 55 1 1.340840515647332 9.555229031213088 22.310033121089603 0 0 0
9022 59 1 2.1880339937451567 18.667588402275076 23.698678091775747 0 0 0
5543 34 1 2.9369997843332243 6.721484127171607 31.168326277974646 0 0 0
4152 27 1 17.42824767505285 18.094708237122905 19.761750043302065 0 0 0
673 55 1 10.176471269939025 7.161804020910607 15.308046775299626 0 0 0
2487 15 1 7.27375103456565 25.040562062061326 11.278993998652291 0 0 0
443 52 1 10.341764577183229 3.0197747642926323 15.394930020955623 0 0 1
1120 5 1 5.210179027324025 10.702555830894596 15.144138955621715 0 0 0
447 29 1 13.379914034706779 2.8814766074080485 19.57821401873781 0 0 0
448 29 1 13.783041562563087 3.6798398082669315 20.889430530796268 0 0 0
449 51 1 5.312384015787516 5.693295824969822 15.357335565700716 0 0 0
450 51 1 5.938061090399008 4.865198012818604 16.511610287802238 0 0 0
451 51 1 6.441224916610494 5.741509034837265 17.774278161060945 0 0 0
452 51 1 7.535450620794881 5.04158141044879 18.455004966359112 0 0 0
453 51 1 8.144662007130885 5.745813356543527 19.63104747170302 0 0 0
454 51 1 9.017422108974797 4.897345153824014 20.48937641780099 0 0 0
455 51 1 9.52022953337425 5.749969421359796 21.668442096923542 0 0 0
456 51 1 10.646730729517728 5.102189070873794 22.451139519059744 0 0 0
457 51 1 11.399245484498433 5.905792508760483 23.551617572243828 0 0 0
458 51 1 12.012960991740304 4.94128468370057 24.502992885595035 0 0 0
459 51 1 12.836220317228621 5.6691383375177855 25.569642984067457 0 0 0
460 51 1 13.38002704559432 4.910398805209603 26.73931660959306 0 0 0
461 51 1 13.921701617374408 5.9423554830158345 27.66059197366034 0 0 0
6820 46 1 2.0285130982547983 21.008369770429717 30.122810938658162 0 0 0
4533 29 1 13.582992516759829 23.44446634938753 14.633716490852077 0 0 0
9641 64 1 5.6473248011592725 25.534949181940256 21.685412250626193 0 0 0
9026 59 1 4.989348757875866 19.218993569943308 27.925134290783422 0 0 0
7872 52 1 4.104067428937348 4.82487424345279 26.992907577426372 0 0 0
1978 41 1 17.75274948868157 20.56013745509271 26.13593400400137 0 0 0
5991 34 1 0.7149853880476562 11.77166138005691 27.704448952475158 0 0 0
4539 29 1 18.157015512588863 23.50328542541325 20.815529326394376 0 0 0
230 29 1 18.210280494454963 3.8736732823200177 27.082350030979153 0 0 0
672 51 1 4.727498801372324 4.946140976322565 14.15640272021778 0 0 0
5994 34 1 2.417427124199969 11.325377846926985 31.13735037055163 0 0 0
674 55 1 10.914371680153236 8.015187199062659 16.367614712330617 0 0 0
675 55 1 11.589781631915697 7.183645211319081 17.447936252968958 0 0 0
676 55 1 12.17763441800975 8.071014004677744 18.552862747773084 0 0 0
677 55 1 13.233174535531505 7.312349422451483 19.438956977550973 0 0 0
678 55 1 13.859358434914636 8.177170730529964 20.579308716278327 0 0 0
679 55 1 14.765430065522594 7.322247720173789 21.49999555199325 0 0 0
680 55 1 15.308209371801006 8.07521984172483 22.754541433966708 0 0 0
681 55 1 16.301272537667213 7.2818788350835 23.57368352991734 0 0 0
682 55 1 16.75489978397153 8.124069150272948 24.739543084546447 0 0 0
442 52 1 9.264945633728807 3.866603941109383 14.725538693331325 0 0 1
3917 24 1 13.021063317214626 13.784008099394851 13.277137493848736 0 0 1
8813 58 1 12.682664149879935 17.16875270479568 31.909737580641654 0 0 0
3928 4 1 18.01080808032013 15.906296076006386 14.895338510636524 0 0 0
9340 63 1 1.5292305480600408 22.343296401995314 22.65348601910522 0 0 0
683 55 1 17.79091773759025 7.416279699570137 25.539454323436118 0 0 0
2504 49 1 18.608218305447878 1.435550192321113 20.262451484931 0 0 0
670 51 1 3.1365398051283253 5.149787658954446 12.24607939521498 0 0 0
897 5 1 5.953595318845511 9.790501657097494 16.140891572465527 0 0 0
898 5 1 6.538445409488316 10.564788226575821 17.37229644751349 0 0 0
899 5 1 7.451373087619738 9.768121922721612 18.328068437593288 0 0 0
900 5 1 8.233436787554208 10.621838841239404 19.27951965286934 0 0 0
901 5 1 9.105695180520991 9.66540615781545 20.14362537211084 0 0 0
902 5 1 9.796141377385034 10.50773077228472 21.23946026230039 0 0 0
903 5 1 10.58975540891689 9.62828576785667 22.21892161659631 0 0 0
904 5 1 11.278155051871092 10.542795891912185 23.265901960824287 0 0 0
905 5 1 11.821155471457924 9.695038272137895 24.44580797316341 0 0 0
906 5 1 12.76479109333958 10.561587588920595 25.349015499652133 0 0 0
907 5 1 13.165798707712144 9.829463859305879 26.621367982461205 0 0 0
908 5 1 14.457479175880573 10.277395695028769 27.322069365897036 0 0 0
909 5 1 14.566651747853038 9.772333923143227 28.78390375711021 0 0 0
910 5 1 15.650688231445208 10.57414827356241 29.50717053826256 0 0 0
9253 61 1 0.7494111798048628 21.288214596289254 15.049684641265623 0 0 0
7639 51 1 3.5947931749590922 3.5961870876749895 19.718544989122577 0 0 0
8414 58 1 4.086302890101571 11.9350880075321 20.590795396111496 0 0 0
2261 14 1 2.9619242252036733 23.265545801280823 12.431832655665318 0 0 0
3919 24 1 14.42650645681979 13.632110275219135 15.340858925125378 0 0 1
3477 48 1 12.384022367289226 10.177911796324146 12.72230906277528 0 0 0
2267 15 1 10.255115781815007 24.970328525443737 15.453985155226054 0 0 0
6440 14 1 1.4557728427520544 15.65112916594448 28.844842216017426 0 0 0
6441 14 1 2.4302909292945145 16.631362966390785 29.52265675088283 0 0 0
1121 19 1 8.837102779408491 12.592541385936267 14.98629669354754 0 0 0
1122 19 1 10.092777454387301 12.248929421541627 15.717374500736364 0 0 0
1123 19 1 10.295872931540071 12.73307850766753 17.117541920454364 0 0 0
1124 19 1 11.614542819066441 12.15980969711915 17.644876965250347 0 0 0
1125 19 1 11.90604130565534 12.81726914569093 19.005183741167787 0 0 0
1126 19 1 13.14799993970831 12.195506129439417 19.607814988616916 0 0 0
1127 19 1 13.569149338559576 12.76250259010657 20.951231085417376 0 0 0
1128 19 1 14.854628295415083 12.205215962894096 21.55936856723475 0 0 0
4611 29 1 13.009819991729403 22.682709869955836 13.457815400053867 0 0 0
4370 26 1 12.761873152453246 18.255779159492587 13.614185723344441 0 0 1
7197 40 1 2.785367106086525 24.744431252897424 31.428951411467295 1 0 0
8410 58 1 1.1542898416560956 11.990045145651717 16.473280165021862 1 0 0
7196 40 1 2.186668541100609 25.478469624239533 30.26737262920057 1 0 0
440 52 1 7.902538636850814 4.000861031725783 12.585822959299517 0 0 1
8799 58 1 2.2597800277788083 17.019818369445833 17.376092199326806 0 0 0
1564 10 1 3.747173994846829 15.15212022653304 13.131125095133294 0 0 0
3100 21 1 16.90314435127494 7.669481187896684 12.04321573694666 0 0 0
9636 64 1 1.3239939492382076 25.30743536958013 16.798787540575955 0 0 0
1345 10 1 7.04551786179087 14.381675857547062 18.610360650033524 0 0 0
1346 10 1 8.348665680551065 14.917674628255817 19.303015788192297 0 0 0
1347 10 1 8.552468189910293 14.22452488424843 20.63640726827176 0 0 0
1348 10 1 9.60701825195355 14.810959170334156 21.590032101400624 0 0 0
1349 10 1 9.928995166165176 14.014337330430603 22.830723309647738 0 0 0
1350 10 1 10.729176935206402 14.932173054064656 23.819367630337084 0 0 0
1351 10 1 10.960901662659927 14.241454684436185 25.166120482143292 0 0 0
1352 10 1 12.177417124070427 14.876178975264427 25.79935984382546 0 0 0
1353 10 1 12.554199069338548 14.054905187349474 26.95672552703009 0 0 0
1354 10 1 13.896103437007515 14.6989310397399 27.44144376025413 0 0 0
1355 10 1 14.418039342629042 13.987380181219558 28.626118799573753 0 0 0
1356 10 1 15.413703392432668 14.782381117924016 29.463307311613253 0 0 0
1357 10 1 15.893805543318045 14.087546557623543 30.761427213769977 0 0 0
1119 5 1 4.415225643184627 9.917191556310323 14.054678294284933 0 0 0
5995 34 1 3.270890441955302 12.223904067354988 31.952346617503885 0 0 0
1884 1 1 5.394864306944593 18.843865062400823 16.365413403080147 0 0 1
7195 40 1 1.4989714460851609 24.686097432238306 29.18636969457793 1 0 0
6819 46 1 1.1532698371787244 20.14592523435005 29.19330353795078 0 0 0
3255 48 1 13.79007258606445 10.275810444952164 14.778020008864106 0 0 0
1883 1 1 5.38528305367825 19.368284094889326 14.940466420290042 0 0 1
1645 45 1 8.151796725265633 16.519544099852666 13.743039768190606 0 0 1
1567 10 1 5.622411962420734 14.501860245284277 16.456446358318935 0 0 0
1568 10 1 6.7672854451174285 15.059809496210395 17.268479436987864 0 0 0
1648 21 1 14.047160746458779 16.42956497044077 21.855130685204294 0 0 0
1649 21 1 14.567091461860358 17.070095515043885 23.103123859674128 0 0 0
4377 28 1 16.96914791203487 20.32584513587392 13.1534313766154 0 0 0
2793 18 1 18.09136538641217 3.176837743865593 13.915616590614265 0 0 0
3480 44 1 17.34042474394854 11.359563496085805 13.063983194813751 0 0 0
3927 4 1 17.796166472765528 16.573026487586837 13.550594858019391 0 0 0
8250 55 1 5.646921364922111 9.185300262991225 28.67320446086461 0 0 0
8034 54 1 10.539179482887779 6.975152924611573 28.786514485178955 0 0 0
1131 19 1 16.56779810925325 12.381835385443539 24.918230686406453 0 0 0
7649 51 1 11.432497824890797 3.176246922495207 29.58231204304479 0 0 0
3261 48 1 18.20406444633604 10.1184506317752 20.85356068223639 0 0 0
2503 49 1 18.069581933132802 0.6501568898230984 19.067606856263502 0 0 0
2499 49 1 14.607030990449573 0.43866850448720984 15.329656953404845 0 0 0
3093 33 1 12.10009517836304 5.748685073999103 12.178901804355364 0 0 1
1880 1 1 2.616608456746001 18.98776384607096 12.233615117066275 1 0 1
9637 64 1 2.564692266554292 25.622488793223653 17.557653478422864 0 0 0
1725 21 1 12.805383493714771 16.613204465461163 19.674791422977428 0 0 0
1726 21 1 13.090013492513608 17.215456361382138 21.042489221231655 0 0 0
1727 11 1 11.643437137649528 18.736153671360594 24.750985719620395 0 0 0
1728 11 1 12.693672239188219 19.551162120760964 25.546740314085937 0 0 0
1729 11 1 12.94249098858672 19.08486716256643 26.940783687767283 0 0 0
1730 11 1 14.345370266309075 19.35265877293769 27.58492538001405 0 0 0
1731 11 1 14.507682423533835 18.683473223903047 28.945894233668383 0 0 0
1732 11 1 15.961090455972402 18.872273722746275 29.409271823179292 0 0 0
1733 11 1 15.991501195603583 18.793253873052393 30.969461838965625 0 0 0
217 2 1 4.3953111623696195 1.3120359147073848 13.252909430173558 0 0 1
7876 52 1 7.099847987205372 4.596516162646553 31.137744113981455 0 0 0
1644 45 1 7.241565076080493 17.241400566428577 12.656247315098167 0 0 1
895 55 1 8.835347546675338 7.427569593626882 13.242923617829973 0 0 0
3476 48 1 12.050381305461489 9.482239842075645 11.394206385931618 0 0 0
7420 63 1 4.179358704959275 0.7163631593710424 27.028417762616705 0 0 0
3481 44 1 17.74236639536263 12.176348027773308 14.299659268928254 0 0 0
8246 55 1 2.6481044417951525 9.436980386446434 24.478494190352954 0 0 0
9644 64 1 7.430635574327257 24.872449343267927 25.14839373170957 0 0 0
8247 55 1 3.55104712038407 10.119335809049872 25.466364038306484 0 0 0
1800 11 1 6.745312343782389 18.549581187770304 18.578574617359603 0 0 0
1801 11 1 7.917467635218676 19.277243482074123 19.392403919034116 0 0 0
1802 11 1 8.240622566014046 18.657954220489472 20.71259517423919 0 0 0
1803 11 1 9.464677495567873 19.289506481619444 21.462515514855966 0 0 0
1804 11 1 9.91449124757208 18.772097077969434 22.830859007882424 0 0 0
1805 11 1 11.216404751312881 19.350129523256832 23.41613305645474 0 0 0
3257 48 1 15.267018984343986 10.294268578373995 16.791183684402448 0 0 0
3256 48 1 14.570918738239248 9.47953483214762 15.74915830883325 0 0 0
2262 14 1 4.265915446029801 23.75210234695028 13.082355396583882 0 0 0
1967 41 1 8.964031311339115 21.41349664767392 14.85972937941 0 0 0
1968 41 1 10.174305215220187 20.98733994301245 15.645278267841052 0 0 0
1969 41 1 10.349676533337542 21.413829791563007 17.088415989753734 0 0 0
1970 41 1 11.687349400141652 20.96994557477086 17.78679152621975 0 0 0
1971 41 1 11.962430380580088 21.405914983749014 19.22354999496715 0 0 0
1972 41 1 13.202212562788926 20.72220247860148 19.776937636556497 0 0 0
1973 41 1 13.698451349705 21.307423066967768 21.101033412622066 0 0 0
1974 41 1 14.903077100281056 20.76533683200985 21.759294135179935 0 0 0
3918 24 1 13.347871634229374 14.416944867142261 14.619669346981993 0 0 1
1118 5 1 3.6583703262084315 10.663976041779295 13.015536226363514 0 0 0
9030 59 1 7.974028918027951 19.369463892308428 31.937234141283927 0 0 0
1723 21 1 11.403409942769937 16.764873884961343 17.589049013911833 0 0 0
8810 58 1 9.935211447263978 16.30296079349118 29.286174331862686 0 0 0
7635 51 1 0.7613163630371771 3.503658899516505 15.521989211048309 1 0 0
911 5 1 16.045576555778563 10.07115443555643 30.887069822542813 0 0 0
2043 14 1 7.165698981621046 23.36216839149566 18.902741163710896 0 0 0
2044 14 1 8.474086379182552 23.87491889012055 19.576193308595087 0 0 0
2045 14 1 8.735509338130282 23.25588129427463 20.91504662038829 0 0 0
2046 14 1 10.058899194281734 23.662439293662008 21.623677030049116 0 0 0
2047 14 1 10.359252612108405 22.953986996502053 23.032370742876214 0 0 0
2048 14 1 11.532746573583944 23.613457364846315 23.7046156114777 0 0 0
2049 14 1 11.855319365659685 22.932932193535574 25.037166861974885 0 0 0
2050 14 1 13.101795661572952 23.54189435951688 25.653466421256645 0 0 0
2051 14 1 13.512638345422353 22.884669916641005 26.93029102567477 0 0 0
2052 14 1 14.542054350236754 23.591795270024413 27.67162694493682 0 0 0
2053 14 1 14.867947930485784 22.998475361426685 29.020269155362506 0 0 0
3101 21 1 17.55551880425395 6.802527914275027 13.141619481112741 0 0 0
9650 64 1 11.989923955433442 25.267058734677505 31.46648105163064 0 0 0
218 3 1 4.642201631898547 0.8053661755797187 14.695732886772747 0 0 0
8647 57 1 6.885736986133802 13.687742548412317 31.142678596232447 0 0 0
9640 64 1 4.275713642139697 25.13784673855961 21.097342891123482 0 0 0
9269 61 1 12.145175708178721 21.52795271956974 32.06835694487266 0 0 0
7419 63 1 4.0962723653419255 1.2719463249677971 25.595991638356423 0 0 0
7874 52 1 5.700380950731463 4.760224388850106 29.059281383404738 0 0 0
2263 14 1 4.487791243060605 23.109242644409495 14.463927774309516 0 0 0
2264 14 1 5.668864758512163 23.731813867381824 15.237908373099772 0 0 0
2265 14 1 5.863258391162665 23.147678661763514 16.64675195265876 0 0 0
2266 14 1 7.000479837810872 23.762998099740134 17.402700789423946 0 0 0
7650 51 1 11.721618468860067 2.738916699608599 30.959011523035915 0 0 0
2268 15 1 11.085357893535562 25.862360027879877 16.407247169899716 0 0 0
2269 15 1 11.723877784610698 25.08747818559747 17.59574728070759 0 0 0
2270 15 1 12.455862868824203 25.97304144960784 18.62140364894485 0 0 0
2271 15 1 13.466197082780669 25.196590221486375 19.503993958013076 0 0 0
2272 15 1 13.804771570743933 25.932817022694845 20.765744120071474 0 0 0
2273 15 1 14.742107644349229 25.07110593405758 21.527684257482747 0 0 0
2274 15 1 15.29268708658484 25.886321256661727 22.784179597042364 0 0 0
2275 15 1 16.12773476404979 25.026303223952024 23.77223479322782 0 0 0
2276 15 1 16.77062962615761 25.845516060196083 24.88979452238037 0 0 0
2277 15 1 17.473165905762666 25.024903861845594 25.935453455154956 0 0 0
9638 64 1 2.787946649763794 25.29040642608014 19.05307818320187 0 0 0
8243 55 1 0.38101460984495394 10.311121110525406 21.36757938468329 1 0 0
912 5 1 17.478887599418005 10.363151746950056 31.506662957979444 0 0 0
7421 63 1 5.528573482952973 0.8770372183251219 27.758642932453633 0 0 0
8645 57 1 5.6903973565601005 13.558921217597119 28.920526466400293 0 0 0
1117 5 1 2.888852151559854 9.8728957433227 12.041973523196026 0 0 0
9648 64 1 10.408296166227975 25.29714350670923 29.431356380159233 0 0 0
4691 20 1 18.152161329563157 25.575431961386386 13.856822377795321 0 0 0
9649 64 1 11.857570600964587 25.313109777750896 29.93107375730252 0 0 0
2876 20 1 17.641518695045473 4.93673231753709 19.150781966249056 0 0 0
1650 21 1 15.452318608178697 16.221442552497425 23.990487438773677 0 0 0
6821 46 1 2.651437420103731 20.161113185675074 31.19109220646757 0 0 0
7423 63 1 6.854192860852097 0.9999242284243833 29.902893661360608 0 0 0
8424 58 1 11.992773340600884 11.619581906337368 30.627930123037768 0 0 0
9024 59 1 3.6261541499537437 19.04131691080134 25.814327791920135 0 0 0
8245 55 1 1.9809986158601511 10.334062883082392 23.458957925882437 0 0 0
4610 29 1 12.334518648404977 23.578923742729565 12.423228246421683 0 0 0
9348 63 1 6.838658448319084 22.946750757035637 31.199681025843642 0 0 0
8639 57 1 0.7703073273112073 14.08750781854749 23.27015080926185 0 0 0
9265 61 1 9.39566162521366 21.3439537863325 27.87139939010816 0 0 0
2498 49 1 13.57711838225643 1.2553067719489084 14.547007358865628 0 0 0
2873 20 1 15.078326236434679 5.730343063448996 16.196118155897963 0 0 0
2877 20 1 18.150469906557944 5.720590831862207 20.280213449182217 0 0 0
11 3 1 17.618700025846913 1.6187845529232638 32.24641790275639 0 0 0
8798 58 1 0.9028266831189451 16.65942456597775 16.71304958817109 0 0 0
8251 55 1 6.441493977663965 10.045876210926352 29.60162333795057 0 0 0
6442 14 1 2.957546775053899 15.911294658339765 30.777868224252664 0 0 0
8253 55 1 7.762265307872587 10.226063246951522 31.715320748853717 0 0 0
8412 58 1 2.8352855945539694 11.950562773565423 18.454590387087684 1 0 0
3095 20 1 13.488248374726972 5.709706723381389 14.260050530187026 0 0 0
3096 20 1 14.524759442626678 4.9385261592086 15.028271208580065 0 0 0
8642 57 1 3.4987064551399762 14.512738112841612 25.91327500183287 0 0 0
1882 1 1 4.04205242923933 19.03710173805759 14.341011540649017 0 0 1
2490 15 1 9.324292422524394 25.775189798362995 14.547776538758683 0 0 0
7641 51 1 5.26919802722194 3.641046373046776 21.731878815525363 0 0 0
465 51 1 17.161155291652975 6.399237468323075 31.720702246359476 0 0 0
1654 21 1 18.771409707690015 15.861065702743252 27.956606743191067 0 0 0
219 3 1 5.976792325210796 1.3776588511462906 15.325206640809188 0 0 0
3258 48 1 16.020974842349336 9.475969535084184 17.799186725751557 0 0 0
3259 48 1 16.562324526984398 10.08699139894887 19.11421215427374 0 0 0
894 55 1 7.693142705305016 8.081404799917996 12.540506041969403 0 0 0
7198 40 1 3.579531185140646 25.506906597106564 32.546260157956155 1 0 0
1132 19 1 17.801901071476824 11.95793222960479 25.702626847071834 0 0 0
8037 54 1 12.082303602457902 7.7955366850880345 32.292771329121976 0 0 0
1976 41 1 16.21050751917644 20.46315289374 24.033512370608502 0 0 0
8641 57 1 2.5743018974663157 13.808794900307864 24.903331468254173 0 0 0
9342 63 1 2.8554775426049175 22.583361203647346 24.792254058102902 0 0 0
9645 64 1 8.74260382735325 25.291539470994508 25.81808366346786 0 0 0
4769 20 1 17.11588537110633 24.8052939170019 13.063291723967724 0 0 0
9023 59 1 2.6137848749634145 18.165498436388543 25.058539102823794 0 0 0
1565 10 1 4.250576697232196 14.345770488325414 14.302632089810645 0 0 0
7416 63 1 1.382600574590822 0.3927392043048469 22.841176256572858 1 0 0
4372 27 1 14.553101069500885 18.10674880401648 15.5512082448892 0 0 0
9651 64 1 13.392771321812818 25.478331169406438 32.14188850436628 0 0 0
1646 45 1 8.60771754440027 17.350973492484364 14.870007862068729 0 0 1
2875 20 1 16.69840760172587 5.746499876310096 18.201680512676706 0 0 0
8415 58 1 4.6699804124460265 12.694889990715133 21.758896040949015 0 0 0
7875 52 1 6.743027609609179 5.4600699083319455 29.945068289910683 0 0 0
1652 21 1 17.165771317876306 15.928291675829003 25.860608168411673 0 0 0
9346 63 1 5.3560164502678225 23.048948486735622 29.12114361155262 0 0 0
445 29 1 11.77278950432158 2.8784624909530225 17.537189164860067 0 0 0
1566 10 1 5.416514337732921 14.996720073197759 15.061838782032124 0 0 0
3916 24 1 11.829462449014363 14.40187237402998 12.495945991438791 0 0 1
4151 27 1 16.654066541506563 18.971989949674366 18.738921035810044 0 0 0
2502 49 1 16.756875127482182 1.2430387786920163 18.517091333516692 0 0 0
5992 34 1 1.0242676812482991 11.175031326807222 29.060645278594365 0 0 0
7873 52 1 5.292962106000786 5.502981143458594 27.785128009401575 0 0 0
2496 49 1 12.01798367296432 1.3095092964930704 12.47919066094016 0 0 0
1722 21 1 10.357279601604576 17.53193539305656 16.758261393505613 0 0 0
7640 51 1 4.765746931203977 2.9177810854985355 20.486271982246308 0 0 0
7867 52 1 0.7451524021163519 5.683354068860689 21.5475809932302 0 0 0
7194 40 1 0.8961571631298879 25.422795562629695 27.946396407570433 1 0 0
1129 19 1 15.223695777649851 12.813055396042847 22.884354336175946 0 0 0
8413 58 1 3.388880175196471 12.83209396419022 19.586773710883648 1 0 0
8023 54 1 2.3975289490099714 8.132412714048403 17.610423895713055 0 0 0
9344 63 1 4.456351933139586 23.04449813267946 26.90063098216143 0 0 0
8811 58 1 10.9930103024927 17.11161409067249 29.9795075106231 0 0 0
8036 54 1 11.711341322992274 6.960687275603087 31.071154196404603 0 0 0
4534 29 1 14.405121910854257 22.685348234032617 15.677458539670859 0 0 0
4535 29 1 15.259377163799606 23.535779198741743 16.641753727249228 0 0 0
4536 29 1 15.989493511607455 22.819845745961036 17.67418769466099 0 0 0
4537 29 1 16.760109405113198 23.62132130013562 18.62400017653803 0 0 0
8423 58 1 10.725412008357129 12.032147883253955 29.980751908941095 0 0 0
8800 58 1 2.393410763165929 16.51231755423351 18.869329031051706 0 0 0
8812 58 1 11.5183690047582 16.385352374838053 31.23697795280788 0 0 0
9267 61 1 11.009506146969965 21.424109017146932 29.75220182528988 0 0 0
2872 19 1 17.767675676684995 2.7093984248905114 12.459991749712845 0 0 1
1563 10 1 2.6308364650677203 14.41999627206613 12.340438386798306 0 0 0
3921 24 1 15.918356144969636 13.946533145299519 17.335761326093042 0 0 1
5540 34 1 0.6054434354195691 7.688649804633368 28.195247308500754 1 0 0
2054 14 1 15.937921274193336 23.607509378192034 29.90061531447383 0 0 0
463 51 1 15.558379912578424 6.185039043521755 29.716466958156726 0 0 0
3094 20 1 13.196423506596409 4.970691738698219 12.921314637207574 0 0 0
8252 55 1 7.225729189281777 9.32298707256936 30.71769454105877 0 0 0
8416 58 1 5.586984393928134 11.702852574549942 22.58195241729829 0 0 0
9025 59 1 4.2038680479524855 18.31140690772827 27.026250427761205 0 0 0
9264 61 1 8.676223098074123 20.578676256641707 26.766304355161452 0 0 0
9029 59 1 7.1924555503340555 18.602931535583163 30.90981296298936 0 0 0
4149 39 1 16.32724518930387 16.49892854131614 11.469344815924588 0 0 1
8797 58 1 0.6989766199609979 17.22918621402825 15.3266681016907 0 0 0
1344 19 1 8.622259078437292 12.226574692752106 13.531611129324766 0 0 0
9263 61 1 7.955527960363474 21.400740051576268 25.766335162427843 0 0 0
9262 61 1 7.367412816531593 20.663282479403478 24.5941532036655 0 0 0
8802 58 1 3.814836459798589 16.399933568355618 20.985450806936935 0 0 0
1966 41 1 9.002623178511149 21.087085872507714 13.408368720141633 0 0 0
6822 46 1 3.4819532736086845 20.994880507255527 32.192290256970324 0 0 0
3920 24 1 14.614894264991229 14.389798078847985 16.706333092001977 0 0 1
9261 61 1 6.398532084697389 21.416946144457143 23.62733560788591 0 0 0
4374 27 1 16.26361712847212 18.275760079314495 17.452944392878884 0 0 0
4369 26 1 11.9072740899539 19.115989856698118 12.716948753001603 0 0 1
1651 21 1 16.2278334110806 16.859488470859034 25.125980452734698 0 0 0
9260 61 1 5.683030058125104 20.544277459017238 22.61204551267052 0 0 0
7638 51 1 3.1619585778130253 2.846761650936996 18.459206029737572 1 0 0
9343 63 1 3.36030838368399 23.524868922430905 25.908562049636092 0 0 0
1343 19 1 7.362461210495668 12.593808393762501 12.728193033599624 0 0 0
446 29 1 12.34491380024436 3.5935790414098046 18.753417192849888 0 0 0
8646 57 1 6.68263867836202 14.324019079748807 29.789468077206585 0 0 0
9258 61 1 4.250537648019893 20.502517503193346 20.520942871025014 0 0 0
9027 59 1 5.790373573478169 18.426435564619528 28.962383912096456 0 0 0
9635 64 1 1.2201319107069557 25.786589918263278 15.386128135052072 0 0 0
9639 64 1 4.068656832289673 25.64842193707545 19.732085630689497 0 0 0
9341 63 1 2.149192286299248 23.29252876334032 23.685248392748946 0 0 0
1358 10 1 16.98931423837466 14.816631857288327 31.528975279711606 0 0 0
5993 34 1 2.1862041261898257 11.87700852602668 29.816526752209885 0 0 0
4150 4 1 16.46574648293183 16.133083301704918 12.946085927393133 0 0 0
7651 51 1 12.772911106012456 3.471838944904039 31.81156317882642 0 0 0
3923 24 1 17.412152627822355 13.799075331688432 19.27811211171714 0 0 1
9254 61 1 1.2807638464911844 20.526549958827584 16.2928933237258 0 0 0
8643 57 1 4.20887756316682 13.552281083230064 26.898582117121382 0 0 0
8803 58 1 5.19008975671497 16.591963636109114 21.508713420378186 0 0 0
8806 58 1 6.833788879626566 16.20281619757426 25.03768241810195 0 0 0
1975 41 1 15.086260286749443 21.15585233919452 23.2250670695679 0 0 0
7871 52 1 3.9634963295930477 5.365453870370889 25.56361476869418 0 0 0
8409 60 1 0.6497642595253086 12.882685768987272 15.453586780223102 1 0 1
8024 54 1 2.987039090569033 7.3444484162973485 18.767807786147422 0 0 0
7418 63 1 2.8496506453620856 0.7147992108650865 24.883839941045615 1 0 0
8801 58 1 3.709414119370678 16.765396412739275 19.52586354785317 0 0 0
7642 51 1 6.010695716697805 2.7501545817619713 22.66924740771998 0 0 0
7643 51 1 6.54237540352916 3.445412782303152 23.900430723264904 0 0 0
7644 51 1 7.369736384453756 2.5346279403529377 24.790844417023436 0 0 0
7645 51 1 8.088863088049655 3.273443787814654 25.973329027963338 0 0 0
7646 51 1 8.887566863159309 2.3421331143564896 26.8024503253894 0 0 0
7647 51 1 9.786905208366449 3.2222351739014483 27.664013301962477 0 0 0
7648 51 1 10.36692459818389 2.4091130815794917 28.889852359836794 0 0 0
8021 54 1 0.9486867160426944 8.182972377426973 15.522233042706464 0 0 0
464 51 1 16.101114158315653 5.517066969932577 31.006929173303874 0 0 0
2489 15 1 8.481861351867531 25.063721846813763 13.541875156096712 0 0 0
7868 52 1 1.2018607791205633 4.936055072415242 22.7788772676343 0 0 0
4538 29 1 17.274118356339635 22.78346462202545 19.77080710020813 0 0 0
8648 57 1 7.998036797340741 14.435697324854102 31.906250921747173 0 0 0
2500 49 1 15.076396077858165 1.2078813663914965 16.550352803882653 0 0 0
7417 63 1 2.71091217760595 0.9190539968197105 23.38987324199192 1 0 0
2488 15 1 8.302251888150298 25.71218134702524 12.217305232173173 0 0 0
8035 54 1 10.825328595289466 7.701956345937948 30.096770616505975 0 0 0
8809 58 1 9.490187248989562 16.89087447013431 27.966118594114963 0 0 0
2056 14 1 17.53739008870568 23.443009598113363 31.7901730174862 0 0 0
9268 61 1 11.6322574296091 20.705647390741877 30.92548262316435 0 0 0
8805 58 1 6.5719927914829155 16.85540223343783 23.695530756807088 0 0 0
1799 11 1 6.655234255234906 19.204695216045465 17.160647610972088 0 0 0
9647 64 1 10.284495136870328 25.432668212209272 27.901448463953155 0 0 0
7869 52 1 2.379141899552431 5.540769787787319 23.55750516011627 0 0 0
7870 52 1 2.8011709249664416 4.781406880648368 24.794542340406252 0 0 0
8807 58 1 8.060663600229306 16.74491724476399 25.753947490673916 0 0 0
9266 61 1 10.220137689323177 20.542520444449845 28.83761480691526 0 0 0
9259 61 1 4.972429129099267 21.33963918416093 21.57411204677172 0 0 0
9345 63 1 4.945775828932401 23.937088876830032 28.033851396307668 0 0 0
684 55 1 18.08138862830065 8.06402661472865 26.859397849938077 0 0 0
8248 55 1 4.034465777493782 9.203762400494808 26.5975515588245 0 0 0
7877 52 1 8.167782860219852 5.404002386159272 31.855772840935565 0 0 0
9347 63 1 6.250425653393893 23.73921385434428 30.109667381111187 0 0 0
8025 54 1 3.4193091016415225 8.186591169758762 19.903046421899283 0 0 0
8026 54 1 4.4348242684580965 7.45485598570165 20.754752100152505 0 0 0