LAMMPS data file via write_data, version 29 Oct 2020, timestep = 32000000

10752 atoms
2 atom types
10752 bonds
3 bond types
10752 angles
3 angle types
10752 dihedrals
3 dihedral types

-1.4019591925125496e-01 3.1008115919238300e+01 xlo xhi
-1.2113307625790526e-01 2.6791853076229280e+01 ylo yhi
 2.6016922295363841e+01 2.5698243770400688e+02 zlo zhi

Masses

1 14
2 15

Pair Coeffs # lj/cut/omp

1 0.0914 3.95
2 0.1947 3.75

Bond Coeffs # harmonic/omp

1 449.5 1.53
2 449.5 1.53
3 449.5 1.53

Angle Coeffs # harmonic/omp

1 62.0967 114
2 62.0967 114
3 62.0967 114

Dihedral Coeffs # opls/omp

1 1.411 -0.271 3.145 0
2 1.411 -0.271 3.145 0
3 1.411 -0.271 3.145 0

Atoms # molecular

1            1            1      25.8877      21.0307       26.767
2            1            1      25.1879      21.9409      27.7256
3            1            1      26.2222      22.5513      28.7022
4            1            1      26.7979      21.4531      29.6001
5            1            1      27.7109      22.1243      30.6152
6            1            1      27.9929      21.2007      31.7821
7            1            1       28.855      21.8926      32.7722
8            1            1      29.2525      20.9315      33.8456
9            1            1      29.9457      21.7361      34.9029
10            1            1      30.6679      20.8965      35.8445
11            1            1     0.334136      21.5369      36.8945
12            1            1     0.987798      20.5661      37.8045
13            1            1      1.83218      21.1661       38.878
14            1            1      2.19374      20.1918      39.9453
15            1            1      1.00161        19.96      40.8949
16            1            1      1.57806      19.0971      42.0399
17            1            1     0.676693      19.0152      43.2657
18            1            1     0.844549      17.7377      44.1464
19            1            1   -0.0827426       17.656      45.3958
20            1            1     0.104687      18.7694      46.4574
21            1            1      30.1152      18.6521      47.4431
22            1            1      30.1301      19.8677       48.314
23            1            1      29.0748      20.0016       49.435
24            1            1      29.5165      20.8491      50.5607
25            1            1      28.4998      21.2685      51.5853
26            1            1      29.0016        22.11      52.7639
27            1            1      27.8322      22.3588      53.6269
28            1            1      28.2564      23.3498       54.725
29            1            1       27.034      23.7533      55.5009
30            1            1      27.4404      24.3486      56.8237
31            1            1      26.1711      24.6584      57.5488
32            1            1      26.5256      25.4442      58.8269
33            1            1      27.5903      24.7383      59.6019
34            1            1      28.0243      25.6386      60.7014
35            1            1      29.0515       25.035      61.6424
36            1            1      29.4685      26.0293      62.7441
37            1            1      30.3462       25.268      63.7629
38            1            1      30.8968      26.0295      64.9058
39            1            1     0.559348      25.2595      65.9075
40            1            1      1.01546      26.0388        67.18
41            1            1      2.16272      25.3586      67.8588
42            1            1      2.68793      26.0891      69.0665
43            1            1      1.58234      26.5195      70.0014
44            1            1       2.0178      0.67665      70.9552
45            1            1       1.1097     0.993591      72.0789
46            1            1      1.76294      1.89143      73.1124
47            1            1     0.654791      2.27358      74.0998
48            1            1      1.08384       3.1694      75.2295
49            1            1 -0.000951322      3.56414      76.1359
50            1            1     0.281308      4.61503      77.2307
51            1            1      30.1546      4.72538      78.0593
52            1            1       30.548      5.59993      79.2894
53            1            1     0.491013      4.98948      80.1579
54            1            1     0.812369      5.98403      81.2425
55            1            1      1.75766      5.35618      82.2464
56            1            1       2.1283      6.39166      83.2761
57            1            1      3.17153      5.84211      84.2585
58            1            1      3.51926      6.81375      85.3749
59            1            1      4.71927       6.4607      86.3349
60            1            1      4.28579      5.51608      87.5042
61            1            1      5.33232      5.09027      88.4773
62            1            1      4.72659      4.19678      89.5131
63            1            1      5.57664      3.77593      90.6666
64            1            1      5.36269      2.46577      91.3706
65            1            1      6.45874      2.36399      92.4324
66            1            1      6.17374      1.19039      93.4613
67            1            1      7.17189      1.10179      94.6316
68            1            1      6.94679      26.7843      95.5447
69            1            1      7.92844    -0.094327      96.7037
70            1            1      7.88638      0.99751       97.819
71            1            1      9.04699      1.37701      98.7413
72            1            1      8.61458      2.15893      99.9424
73             1             1       9.72942       2.35063       100.911
74             1             1       9.36488       3.30928       102.112
75             1             1       10.5375       3.70883       102.974
76             1             1       10.0735       4.54598       104.176
77             1             1       9.03106       3.84475       104.998
78             1             1       8.42985       4.70182       106.108
79             1             1       7.52926       3.87562       106.972
80             1             1       7.01342       4.64865        108.22
81             1             1        6.3591       3.76709       109.291
82             1             1       5.43088         4.389       110.359
83             1             1       4.97278       3.54112       111.496
84             1             1       4.04822       4.38181       112.372
85             1             1       3.44728       3.67466       113.582
86             1             1       4.56691       3.06032       114.473
87             1             1       4.02957       2.27519       115.624
88             1             1       5.22426       1.75288       116.467
89             1             1       4.71926      0.908618       117.562
90             1             1       5.80008      0.410829       118.598
91             1             1       5.27809       26.6446       119.854
92             1             1       6.40872       25.9153       120.629
93             1             1       5.74249       25.3474       121.865
94             1             1       6.89928       24.7562       122.634
95             1             1        6.4838       23.9504       123.897
96             1             1       5.30926       24.5234       124.638
97             1             1       4.97348       23.5778       125.779
98             1             1       3.99923       24.2563       126.679
99             1             1       3.60672       23.3618       127.813
100             1             1       2.76052       24.0676       128.855
101             1             1       2.01672       23.2972       129.961
102             1             1       1.32491       24.0774        131.05
103             1             1       2.11853       24.2771       132.355
104             1             1       1.17659        25.179       133.242
105             1             1       1.80541         25.83       134.426
106             1             1      0.871039       26.5831       135.275
107             1             1       1.56186      0.284777       136.413
108             1             1      0.523171      0.940038       137.263
109             1             1       1.35702       1.79893       138.182
110             1             1       2.06748       1.07768       139.348
111             1             1        2.9427       1.83053       140.337
112             1             1       3.41933      0.743163       141.353
113             1             1       4.50118       1.42763       142.097
114             1             1       4.99941      0.648307       143.296
115             1             1       5.87593       1.44662       144.223
116             1             1       6.50231      0.666604       145.362
117             1             1       7.43032       1.30775       146.363
118             1             1       6.64765       2.01126       147.501
119             1             1       7.54804       2.87559       148.439
120             1             1       6.73689       3.53666       149.533
121             1             1        6.1999       2.59666       150.638
122             1             1       5.45614       3.31012       151.734
123             1             1        4.5443       2.46533       152.591
124             1             1       4.00671       3.14296       153.894
125             1             1       2.99332       2.30631       154.613
126             1             1       2.43281       2.92559       155.912
127             1             1       1.79573       1.99387       156.911
128             1             1       1.21257       2.99949       157.929
129             1             1      0.496268       2.28403       159.023
130             1             1       30.9277       3.20203       159.992
131             1             1        29.992       2.41673       160.835
132             1             1       29.5712        3.2032       162.144
133             1             1       30.6989        3.5394       163.137
134             1             1       30.1554       4.43725       164.211
135             1             1     0.0109231        4.8478         165.3
136             1             1         30.47       5.66257         166.3
137             1             1      0.445784        6.3186       167.114
138             1             1       30.9223       7.18347       168.196
139             1             1      0.828355       7.85746       169.096
140             1             1      0.279368       8.61919       170.333
141             1             1       1.31451       9.42599       171.091
142             1             1      0.675218         10.41       172.156
143             1             1    -0.0291497        9.5506       173.211
144             1             1       30.2159       10.1944        174.21
145             1             1       29.5584       9.22938       175.214
146             1             1       28.6853       9.75742       176.338
147             1             1       28.2056       8.78834       177.391
148             1             1       27.2046       9.47331       178.344
149             1             1       26.6985       8.71881       179.494
150             1             1       25.6329       9.37635       180.393
151             1             1       25.1082       8.45772        181.45
152             1             1       24.3574       9.16987       182.583
153             1             1       23.8315       8.21051       183.587
154             1             1       24.9503       7.70705       184.426
155             1             1       24.5725       6.76749       185.537
156             1             1       25.6958        6.3317       186.376
157             1             1        25.306       5.67785       187.723
158             1             1       26.4702       5.03292       188.498
159             1             1         26.06       4.16788       189.677
160             1             1       27.1712        3.9022       190.704
161             1             1       26.6551       2.82763       191.662
162             1             1       27.6261       2.44769       192.751
163             1             1       26.8884       1.59498       193.743
164             1             1       27.7455       1.10363       194.873
165             1             1       26.9939      0.304728       195.957
166             1             1        28.078       26.7347       196.867
167             1             1       28.7144      0.857948       197.812
168             1             1       29.5626      0.128455       198.785
169             1             1       30.0456       1.06456       199.845
170             1             1       30.7447      0.263738       200.954
171             1             1      0.240373       1.10562       202.092
172             1             1       0.80928      0.196095       203.134
173             1             1       1.48334      0.945618       204.274
174             1             1       2.44068      0.103261       205.164
175             1             1       3.12797       0.92971       206.178
176             1             1       2.15841       1.45268       207.285
177             1             1       2.77062       2.38019       208.357
178             1             1       1.76936       2.70275        209.45
179             1             1       2.34462       3.67912       210.471
180             1             1       1.39957       4.29514        211.44
181             1             1       2.04945       5.05206       212.596
182             1             1       1.06291       5.66343        213.58
183             1             1       1.74651       6.60198       214.574
184             1             1       2.36642       5.65019       215.574
185             1             1       3.31092       6.31505       216.487
186             1             1        3.7921       5.49349       217.676
187             1             1       4.76167       6.25372       218.534
188             1             1       5.36388       5.44871       219.709
189             1             1       6.17914       6.38812        220.56
190             1             1       6.43201       5.53835       221.824
191             1             1        7.4129       6.09894       222.834
192             1             1       7.71377       5.16778       224.031
193             1             1       8.87059       5.88163       224.771
194             1             1       9.21294       4.97714       225.982
195             1             1       8.05249       4.40196       226.814
196             1             1       8.61549        3.6431       228.019
197             1             1       7.48436       3.13823       228.819
198             1             1       8.16547       2.52228       230.077
199             1             1       7.16938       1.79969        230.95
200             1             1       7.85177       1.10946       232.065
201             1             1       6.95067      0.283977       232.994
202             1             1       7.50086       26.7008       234.361
203             1             1       6.47368       25.7178       235.033
204             1             1       7.08789       25.2747       236.322
205             1             1        5.9709       24.8145       237.243
206             1             1       6.46386       23.9749       238.397
207             1             1       5.30504       23.6174       239.341
208             1             1       5.87256       22.7871       240.508
209             1             1       4.88792       22.1862       241.473
210             1             1       5.65554       21.4828       242.562
211             1             1       4.75091       20.8251       243.554
212             1             1       4.14428       21.8115       244.449
213             1             1       3.34203       21.1193       245.519
214             1             1        2.7884       22.0622        246.62
215             1             1       1.95107       21.2398        247.56
216             1             1       1.38322       22.0151       248.724
217             1             1      0.452622       21.1397       249.544
218             1             1       30.9106        21.826       250.703
219             1             1       30.0716       20.8352       251.499
220             1             1       29.6766       21.4129       252.809
221             1             1       28.6781       20.6746       253.662
222             1             1       28.2777       21.4994       254.842
223             1             1       27.2354       20.8676       255.729
224             1             1        26.724       21.8458       256.712
225             2             1      0.920352       23.9908       255.253
226             2             1       30.9062       23.3716       255.949
227             2             1        30.613       23.8386       26.3968
228             2             1       29.2654       23.5648         27.12
229             2             1       29.4293       24.2665       28.4899
230             2             1       30.5482       23.6451       29.2432
231             2             1       30.8461       24.2642       30.5533
232             2             1      0.779416       23.4956       31.2802
233             2             1       1.29158       24.2549       32.5035
234             2             1       1.88522       23.3129       33.5678
235             2             1       2.63279       23.9581       34.6985
236             2             1       3.13214       22.9471       35.7111
237             2             1       4.11972        23.633       36.6415
238             2             1       4.40407       22.8564       37.8789
239             2             1       5.52615       23.4538       38.7121
240             2             1       6.10247       22.4948       39.7468
241             2             1       4.98327       22.2868       40.7739
242             2             1       5.41923       21.2471       41.7623
243             2             1       4.64068       21.2588       43.0848
244             2             1        4.8808       20.0712       43.9284
245             2             1       3.89344       20.0548       45.0711
246             2             1       4.18191       21.0914       46.1316
247             2             1       3.12768       20.9407       47.1639
248             2             1       3.06594        21.984       48.2107
249             2             1       1.95174       21.9601       49.2038
250             2             1       2.08125       23.1081       50.1076
251             2             1       1.15067       22.9498       51.2771
252             2             1       1.53215       23.9527        52.306
253             2             1      0.618553       23.9859       53.4528
254             2             1      0.769236       25.2888       54.1785
255             2             1    -0.0824828       25.3637       55.5256
256             2             1     -0.175857       26.6305       56.2868
257             2             1       30.0813       26.5199       57.5016
258             2             1       29.6898      0.984642       58.0435
259             2             1       30.7809       1.51535       58.9501
260             2             1       0.22183      0.516318       59.9369
261             2             1       1.15405       1.26867       60.8477
262             2             1       1.73483       0.36757       61.9694
263             2             1       2.50077        1.2581       62.8813
264             2             1       3.14329      0.412731        63.991
265             2             1         3.825       1.38366       64.9981
266             2             1        4.5305      0.611768       66.0852
267             2             1       5.24052       1.43833       67.1466
268             2             1       6.15147      0.797172       68.2304
269             2             1       6.60171       1.74293       69.2589
270             2             1       5.48289       2.14744       70.1779
271             2             1       5.97128       2.98645       71.2723
272             2             1       4.83013       3.35883       72.1585
273             2             1       5.34679       4.10131       73.3523
274             2             1       4.23816        4.3834       74.3187
275             2             1       4.54513       5.55293       75.2635
276             2             1       3.38697       5.94052       76.1208
277             2             1       3.87416       6.75868       77.3348
278             2             1        2.7299        7.0789       78.2839
279             2             1       3.24453       8.01329        79.379
280             2             1       4.46764        7.6181       80.1073
281             2             1       4.65877       8.36972       81.4468
282             2             1       5.70822       7.81303       82.3736
283             2             1       5.91954       8.60671       83.6881
284             2             1       7.01721       7.97524       84.4168
285             2             1       7.57004       8.78718       85.5046
286             2             1        8.6494       8.27903       86.3636
287             2             1       8.14336       7.36796       87.4663
288             2             1       9.15508       6.91738       88.5101
289             2             1       8.57594       6.06269        89.665
290             2             1       9.50517       5.56969       90.7577
291             2             1        8.9785       4.48478       91.6357
292             2             1       10.1156       4.25814       92.5679
293             2             1       9.92603       3.45446       93.8348
294             2             1       11.1239       3.54139       94.7357
295             2             1       11.1056       2.41067        95.793
296             2             1        12.283       2.46551       96.7767
297             2             1       11.9362       3.49048       97.9106
298             2             1       12.9176       3.48608       99.1088
299             2             1       12.6589       4.67185       99.9913
300             2             1       13.4608       4.77219       101.212
301             2             1       13.2007        5.9721       102.117
302             2             1       14.2684       6.07293        103.14
303             2             1       13.8722       6.93198        104.26
304             2             1       12.9721       6.22845       105.181
305             2             1       12.3194       7.03305       106.264
306             2             1       11.4734       6.14514       107.158
307             2             1       10.8262       6.93665       108.297
308             2             1        10.086       5.91698       109.194
309             2             1       9.18231        6.7189       110.086
310             2             1        8.8537       5.92753       111.303
311             2             1       7.88159       6.68655       112.173
312             2             1       7.37374       5.91702       113.422
313             2             1       8.38857       5.69994       114.518
314             2             1       7.86399       4.89009       115.605
315             2             1       8.92059       4.32996       116.575
316             2             1       8.19632       3.40558       117.508
317             2             1       9.28606       2.93039       118.508
318             2             1        8.8565       2.08422       119.667
319             2             1       10.0244       1.53583       120.516
320             2             1       9.45904      0.750768       121.659
321             2             1       10.6034      0.107271       122.518
322             2             1       10.2171       26.0944       123.693
323             2             1       9.36212       26.7444       124.767
324             2             1       9.03405       25.7254       125.885
325             2             1       8.15424       26.4813       126.933
326             2             1       7.42269       25.4538       127.747
327             2             1       6.57829       26.0482       128.813
328             2             1       6.13869       25.0294       129.873
329             2             1        5.1977       25.7214       130.795
330             2             1       5.97706        26.431       131.872
331             2             1       5.02102      0.207057       132.852
332             2             1       5.68808       1.02229       133.906
333             2             1       4.64738       1.69359       134.824
334             2             1        5.2359       2.44696       136.039
335             2             1       4.46223       3.16726       137.091
336             2             1       5.32751       4.05309       137.991
337             2             1       5.97404       3.26758       139.071
338             2             1       6.72788       4.12748       140.131
339             2             1       7.40733       3.26087       141.198
340             2             1       7.98402       3.91179       142.364
341             2             1        8.9549       3.06334       143.179
342             2             1       9.67232       3.89879       144.228
343             2             1       10.4557       3.12567       145.273
344             2             1        11.141       3.99784       146.302
345             2             1       10.3905       4.49859       147.473
346             2             1       11.2319        5.3354       148.407
347             2             1        10.631       5.79324       149.731
348             2             1       10.0815       4.80249       150.631
349             2             1       9.11352       5.46318       151.606
350             2             1       8.46561       4.71168       152.773
351             2             1       7.75441       5.58516       153.828
352             2             1       7.04941       4.68298       154.849
353             2             1       6.21172       5.40312        155.89
354             2             1        5.7106       4.55037       156.995
355             2             1        4.5933       5.18893       157.709
356             2             1       4.26101       4.48761       158.994
357             2             1       3.40582       5.34169       159.898
358             2             1       2.83018       4.59184        161.07
359             2             1       2.24867       5.56299       162.085
360             2             1       3.29867       6.12486       162.946
361             2             1       2.76785        6.7452        164.23
362             2             1       3.79912       7.54993       164.956
363             2             1       3.14054        8.3667       166.051
364             2             1       4.05948       8.73335       167.181
365             2             1       3.56263       9.91212       168.086
366             2             1        4.7104       10.2258       169.049
367             2             1       4.45833        11.264       170.092
368             2             1         5.484       11.7399       171.126
369             2             1       4.84685       12.4877       172.203
370             2             1       3.96058       11.5152       172.962
371             2             1       3.24529       12.2948       174.097
372             2             1       2.48387       11.3747       175.041
373             2             1       1.81655       12.1579       176.088
374             2             1      0.864788       11.3737       176.982
375             2             1      0.239204       11.9401       178.217
376             2             1        30.818       10.8912       179.251
377             2             1       30.0394       11.5769       180.362
378             2             1       29.4501       10.5773       181.322
379             2             1       28.4229       11.2255       182.183
380             2             1       27.9113       10.2436       183.242
381             2             1        28.927       9.85329       184.303
382             2             1       28.3464       8.92454       185.353
383             2             1       29.3981       8.53752       186.313
384             2             1       28.9424       7.74535       187.532
385             2             1       30.0828       7.51877       188.519
386             2             1       29.6236       6.59161       189.614
387             2             1       30.7357       6.15922       190.584
388             2             1       30.2538       5.24619       191.658
389             2             1      0.128758       4.76145       192.648
390             2             1        30.641       4.01783       193.788
391             2             1      0.419121       3.48354       194.811
392             2             1    -0.0258702       2.37216       195.692
393             2             1       0.96427       1.85561       196.704
394             2             1       1.45128       2.86662       197.758
395             2             1       2.26208       2.25611       198.907
396             2             1       2.70933       3.36032       199.878
397             2             1        3.1335       2.62982       201.129
398             2             1       4.03517       3.44447       202.055
399             2             1       4.78323       2.40362       203.029
400             2             1        5.6565       3.03102       204.109
401             2             1        6.2787        2.2149       205.173
402             2             1       6.98719       3.12334        206.15