LAMMPS data file via write_data, version 23 Jun 2022, timestep = 11111117

9706 atoms
2 atom types
9690 bonds
3 bond types
9674 angles
3 angle types
9658 dihedrals
3 dihedral types

0 36.89775039 xlo xhi
0 26.67072 ylo yhi
36.878451978617775 199.87315242139238 zlo zhi
0 5.128168178959293 0 xy xz yz

Masses

1 14
2 15

Pair Coeffs # lj/cut/omp

1 0.0914 3.95
2 0.1947 3.75

Bond Coeffs # harmonic/omp

1 449.5 1.53
2 449.5 1.53
3 449.5 1.53

Angle Coeffs # harmonic/omp

1 62.0967 114
2 62.0967 114
3 62.0967 114

Dihedral Coeffs # opls/omp

1 1.411 -0.271 3.145 0
2 1.411 -0.271 3.145 0
3 1.411 -0.271 3.145 0

Atoms # molecular

1 3 1 7.013898815550225 3.581092515121961 42.0439401291873 0 0 0
2 3 1 8.343158989840068 3.7539857098326017 42.816274695340525 0 0 0
3 3 1 8.67098242475246 2.5728008871342123 43.65928292045112 0 0 0
4 3 1 10.01999905160372 2.6262114142784925 44.53032209695043 0 0 0
5 3 1 9.974818750729321 1.2966416345078238 45.28821186871145 0 0 0
6 3 1 11.150954080233777 1.3748965597087488 46.29810240165568 0 0 0
7 3 1 11.449482369289404 0.14829023940181274 46.97532645328631 0 0 0
8 3 1 12.731184108737342 0.23905780866043566 47.81094795375677 0 0 0
9 3 1 12.958247544333341 25.76626252869956 48.85901971619184 0 -1 0
6760 47 1 0.6276164611132025 24.639755059687587 49.24838821350629 1 0 0
7745 23 1 0.9105602075559301 8.142783489269974 45.887990091269586 1 0 0
4537 34 1 17.6153799948144 22.61266333855613 43.00870499912812 0 0 0
7746 23 1 1.8516795071809113 9.270348439216425 46.05510447248775 0 0 0
8574 3 1 0.43461526501430847 16.880088263429815 45.62856264952629 1 0 0
3706 13 1 16.077487815713173 14.675531379264823 41.73412968683526 0 0 0
9636 64 1 1.1468670662013338 26.425808333191522 41.01504809778854 0 0 0
7744 23 1 0.253357872565199 8.138912370459863 44.451011339388444 1 0 0
3164 22 1 13.589426407431098 8.03183890793683 38.625544361046394 0 0 0
2716 35 1 11.771816243207295 4.956866669852157 37.18736947905463 0 0 1
221 3 1 4.0241057193559335 3.3749083791468886 39.38396274638438 0 0 0
222 3 1 5.5363315046366495 3.706242065058631 39.62485293653512 0 0 0
223 3 1 5.689040600943328 4.86639987867774 40.500226171509695 0 0 0
224 3 1 7.005382123640185 4.785145883330426 41.187279984259476 0 0 0
304 36 1 11.619589906540272 4.843197440666188 42.47704330569708 0 0 0
305 36 1 13.004277905368415 4.236251221936472 42.78149005522893 0 0 0
306 36 1 13.220797473443906 3.622339770311876 44.23402094730422 0 0 0
307 36 1 14.578087928135124 3.548255131769647 44.8708089558885 0 0 0
308 36 1 14.63185567028164 2.492627251550304 45.983401244097664 0 0 0
309 36 1 15.99034807872168 2.5426064442179364 46.63296905769404 0 0 0
310 36 1 16.125704500707915 1.3013403027929944 47.483183296663256 0 0 0
8808 58 1 6.966222885102205 18.122635007510432 47.000608218768384 0 0 0
3701 25 1 16.812467405232663 13.973582628776255 37.11728296498946 0 0 1
603 6 1 3.93987889096296 6.588733613988221 38.25563386454449 0 0 0
2636 64 1 13.068752116792695 3.7972811555484167 39.108156926774534 0 0 0
8800 58 1 0.4058688743341876 17.348575260932765 40.94512868982302 0 0 0
6381 56 1 1.2655018044146282 18.83100073800981 50.25155121117097 0 0 0
8488 5 1 1.5681630576995855 14.04572170452749 40.9110124604752 0 0 0
5099 1 1 1.1669350828673233 5.519714118785262 50.405975572987465 1 0 0
380 36 1 10.174430687057594 7.156223113413276 39.850436703236156 0 0 0
381 36 1 10.347453314448183 5.879994070074561 40.66264156727873 0 0 0
382 36 1 11.547327864763579 6.058201327378313 41.55301140576441 0 0 0
383 6 1 6.556274532523104 9.191716741333801 41.36377169276062 0 0 0
384 6 1 7.207685257047857 7.996750394406468 41.82031013665546 0 0 0
385 6 1 8.159133313261076 8.253329915274794 42.99559421848254 0 0 0
386 6 1 8.349495796205415 7.107551751095222 43.87951301594111 0 0 0
387 6 1 9.736211200029688 6.796296242015328 44.52471798697127 0 0 0
388 6 1 9.962430808650996 5.829613062183603 45.60484416143645 0 0 0
389 6 1 11.277198486921986 5.8030338213873724 46.3394522335781 0 0 0
390 6 1 11.453538630175295 4.659238393228859 47.3103459260495 0 0 0
391 6 1 12.807753108272172 4.591826730830544 47.86830376765813 0 0 0
392 6 1 12.870289932143269 3.6759395068913494 49.060254039843144 0 0 0
2319 15 1 2.2673899044659582 24.350412242271442 38.15841490088773 1 0 1
828 59 1 7.868788985163238 10.63115325722048 38.72281399853684 0 0 0
4091 31 1 17.52758853259848 17.982097336758372 43.35926447097368 0 0 0
4611 34 1 13.713570721749637 26.000062743351062 39.66840394995945 0 0 0
9345 63 1 3.7653140323453016 25.852281656912766 48.59625619167881 0 0 0
9341 63 1 0.6801307633801944 25.688813858477836 45.60140230071857 0 0 0
1215 11 1 3.933261092367371 15.717862312260701 38.284689282307745 0 0 0
8809 58 1 7.944586722202964 16.993115460297403 47.373576322107475 0 0 0
7148 49 1 3.0894225513344744 0.11403834609977453 51.68053243649352 0 1 0
8486 5 1 0.14873644529797797 12.996497450516916 39.58339585447575 0 0 0
604 6 1 4.01519425507043 7.976977955786912 38.88117701892466 0 0 0
605 6 1 5.340476681325629 8.09039251647915 39.549303707056225 0 0 0
606 6 1 5.245947870911947 9.088274768532925 40.61615743259817 0 0 0
607 59 1 10.121354234267276 10.594066004483004 40.69430029783663 0 0 0
608 59 1 11.433928588617439 10.543612666326387 41.40888505563399 0 0 0
609 59 1 11.505448103712414 9.293199382759045 42.327396007679404 0 0 0
610 59 1 12.721002816961413 9.257987900103764 43.27102467755908 0 0 0
611 59 1 12.826589392304603 8.027517793817585 44.157474901491454 0 0 0
612 59 1 14.195851437874003 7.9588563619977375 44.59561982295778 0 0 0
613 59 1 14.26265952294647 6.843942911550368 45.56825446825529 0 0 0
614 59 1 15.646326147295712 6.667842589017874 46.131987874014875 0 0 0
615 59 1 15.727029016106428 5.7261654186031805 47.413515909206225 0 0 0
8814 58 1 11.456001567262593 14.660489446300582 52.285139406367584 0 0 0
8577 3 1 3.0041637162203125 16.693614645234895 47.047659475193484 0 0 0
4700 35 1 12.98909908774401 26.01032821829977 38.42607666302134 0 0 1
616 59 1 17.251392637450355 5.436780078081769 47.752766194007194 0 0 0
3162 22 1 11.981480700437093 9.282910744823297 36.96357819480168 0 0 0
2324 15 1 7.067907916920738 0.25166886346880313 41.71637064186396 0 1 1
4699 35 1 12.361222230437559 0.5589479038598244 37.92493585223744 0 1 1
7972 54 1 0.8262174878629546 8.930727329464974 40.84580068140688 0 0 0
830 59 1 10.065037460299108 11.402134036234786 39.378659253450664 0 0 0
831 9 1 4.976512619755267 12.2785697374015 39.669687571149026 0 0 0
832 9 1 5.303313815755298 13.616050050170015 40.12396078999892 0 0 0
833 9 1 6.51871874175936 13.60092143523581 41.002511896449576 0 0 0
834 9 1 6.748668966702513 12.55671524851448 42.03453404284795 0 0 0
835 9 1 8.040841384501315 12.73691661394797 42.79722681026194 0 0 0
836 9 1 8.417202362548663 11.693218787031189 43.84248204757439 0 0 0
837 9 1 9.794070560502453 11.604906281093596 44.55778100976889 0 0 0
838 9 1 10.256026591508064 10.283325072601555 45.17427494845374 0 0 0
839 9 1 11.15442188658644 10.278421305877723 46.43836285361576 0 0 0
840 9 1 11.538456698238795 8.997777228356274 47.1097166970875 0 0 0
841 9 1 12.634052000396444 9.17475466295405 48.21335645755505 0 0 0
8192 55 1 0.5350570002608523 12.131898205677054 45.29147090877994 1 0 0
8497 5 1 8.31488139721392 12.684580562266108 48.497391661697854 0 0 0
3705 13 1 15.085677556483098 15.782654209356371 41.46943647516501 0 0 0
9644 64 1 6.851260437554214 0.2590761099066627 47.33791691976641 0 1 0
8498 5 1 9.300107930937802 11.604988425412905 49.07324577154227 0 0 0
2105 33 1 10.212128796300766 24.89456747263618 40.23173517102141 0 0 0
8502 5 1 11.947257074185144 9.028717164036827 52.46140925642424 0 0 0
7747 23 1 2.4227189718773947 9.11591801279795 47.44812530079726 0 0 0
3703 25 1 18.198689495840632 12.981449155555293 38.76721823941798 0 0 1
1892 33 1 17.574929571825212 17.64749098008993 49.25537793590448 0 0 0
2103 60 1 8.937716486717642 23.855533307722087 38.55328027616026 0 0 1
909 9 1 3.5666113481298014 12.024931929367193 39.17984291972936 0 0 0
989 9 1 11.630926638587278 14.82826111103381 41.462694460665595 0 0 0
990 9 1 11.551661862476138 13.578477468174627 42.39036229090936 0 0 0
991 9 1 12.710687154531946 13.646112136982186 43.37474223018593 0 0 0
992 9 1 12.984025371180673 12.337896733907078 43.99532285722074 0 0 0
993 9 1 14.153793121260385 12.504897074917595 45.02068317041023 0 0 0
994 9 1 14.364408314578847 11.213318742111834 45.79976542088239 0 0 0
995 9 1 15.757973976923864 11.200448062127947 46.442230498332236 0 0 0
996 9 1 15.971783383023588 9.96720077036809 47.28508626755798 0 0 0
4532 32 1 16.620437011700883 22.584421944822175 37.27303138110181 0 0 1
9344 63 1 3.427054600753115 25.84790221611593 47.09599718735107 0 0 0
1878 14 1 4.110533635519727 21.35416153662704 39.263281393468105 0 0 0
2102 60 1 7.4687824165440295 23.627285002778326 38.365535396436385 0 0 1
9643 64 1 6.31986068329375 0.47094066694872805 45.86727162641951 0 1 0
7752 23 1 6.159286248030867 5.53722631245957 50.82325620395918 0 0 0
5935 54 1 2.5540823891299143 13.073963949886917 52.07954917979761 0 0 0
1210 9 1 9.128555793051198 16.319800566531562 39.281861313410616 0 0 0
1211 9 1 10.460675362823599 16.176804555564324 39.760795264166326 0 0 0
1212 9 1 10.447709023843071 14.909209402786876 40.49467361989078 0 0 0
829 59 1 8.696155437372536 11.88629404866612 38.99876616041601 0 0 0
4534 33 1 18.083331797663433 21.22194029890238 38.723977232479804 0 0 0
4081 2 1 15.69994885730006 19.009012853143634 36.922604089934325 0 0 1
1216 11 1 4.090998993186215 16.63485464189449 39.39364134375031 0 0 0
1217 11 1 5.509141742039809 17.078190543526993 39.53417259900229 0 0 0
1218 11 1 5.691932935414871 18.08541402000325 40.63286395483264 0 0 0
1219 11 1 7.053083148744831 18.091715820596526 41.212359241310324 0 0 0
1220 11 1 7.1748478052127105 17.066551926452856 42.33598075299041 0 0 0
1221 11 1 8.594844748735902 17.168996816578876 42.82076287185313 0 0 0
1222 11 1 8.793670117328794 15.955479222218779 43.64821304408204 0 0 0
1223 11 1 10.117824883514404 15.851336475958172 44.35783974954134 0 0 0
1224 11 1 9.976132271887037 14.854818217399288 45.47864044945689 0 0 0
1225 11 1 11.280243468421556 14.758575974279731 46.22855049718077 0 0 0
1656 13 1 8.632632118686168 19.69438368753513 38.29704494800108 0 0 0
7973 54 1 1.96012875100992 9.880523620672172 41.30533613140336 0 0 0
9349 63 1 6.374786830225248 23.268166864955454 52.03687932367707 0 0 0
8495 5 1 6.979728770533534 13.84722026510988 47.07785031513766 0 0 0
9025 59 1 1.6127358719292764 22.4615116784337 45.61330467500677 0 0 0
9637 64 1 1.6176774101933655 1.203007169365441 41.36551669625407 0 1 0
2939 19 1 16.89507606152304 4.791686752715534 37.07797807654083 0 0 1
8813 58 1 10.822045373512838 14.778380801448149 50.87629362851487 0 0 0
998 9 1 17.375556119845104 8.76427165638241 49.092551326050625 0 0 0
7302 63 1 3.086288350568969 3.8603840982942534 47.351614114387985 0 0 0
1437 13 1 11.842392291673034 18.166978756748904 42.30343891155347 0 0 0
1438 13 1 12.909118052958611 18.24908347242328 43.30520716388574 0 0 0
1439 13 1 13.325645534026426 17.07100774817486 44.052361919021465 0 0 0
1440 13 1 14.527396856668405 17.022811486846877 44.91860331660907 0 0 0
1441 13 1 14.641149563795599 15.77605158484171 45.7120899975272 0 0 0
1442 13 1 15.961455305349533 15.669344786035978 46.51433929534876 0 0 0
1445 13 1 17.481999699513125 13.271771971309128 49.152344129710904 0 0 0
9032 59 1 6.9393415031514785 19.109968909380342 51.87516660023458 0 0 0
3163 22 1 12.709758531696643 9.234310008267933 38.3262860581224 0 0 0
8494 5 1 6.357106761281809 13.887663849253409 45.64015192906222 0 0 0
6382 56 1 2.0145190271904485 18.907481267754456 51.550624598614576 0 0 0
2326 16 1 8.389011912944458 25.673651254442806 43.33402278602093 0 0 0
7748 23 1 3.5843423976979762 8.134835193411089 47.567662519688135 0 0 0
8490 5 1 2.8041569162379387 15.624858984187417 42.58806708470651 0 0 0
1657 13 1 8.872103022137166 20.748360469975854 39.31439177635407 0 0 0
1658 13 1 10.283111588271101 20.57432326045428 39.87140828376089 0 0 0
1659 13 1 10.253282520184507 19.314271830082934 40.73029715504299 0 0 0
1660 13 1 11.66647018057225 19.301466459809763 41.35979699785437 0 0 0
1661 14 1 9.947427828722642 20.141238249393577 44.43220899308861 0 0 0
1662 14 1 10.080840996486875 19.25410120485158 45.66817401792679 0 0 0
1663 14 1 11.416467347910842 18.914966980717384 46.28850063610388 0 0 0
1664 14 1 11.24318897959165 18.0119850983036 47.468131189724204 0 0 0
1665 14 1 12.624706913588946 17.56611382320162 47.79378151379147 0 0 0
1666 14 1 12.730257785689114 16.703388012527437 49.02830732755608 0 0 0
1667 14 1 14.119576309568167 16.617829720450427 49.60320986873759 0 0 0
1668 14 1 14.192623250340773 15.448336868877146 50.517619046463665 0 0 0
1669 14 1 15.490433663788107 15.458739954143475 51.2712882616551 0 0 0
8811 58 1 9.249143102959916 15.781376925855053 49.34759364122709 0 0 0
8194 55 1 2.0138803593823504 13.325445735658938 47.035760122958266 0 0 0
9342 63 1 1.7144870814963542 0.10401126181291266 45.59024728337438 0 1 0
1209 9 1 8.727608665374353 15.105225846901478 38.41451161326365 0 0 0
1443 13 1 15.921127068614528 14.517222184338726 47.558922356193314 0 0 0
9647 64 1 9.375318663452905 24.754076780935254 49.3098561761226 0 0 0
4083 2 1 17.108976053810192 17.718588477536205 38.62551195780462 0 0 1
3329 26 1 17.32961147633362 8.907566584777951 43.42535253716773 0 0 0
8196 55 1 3.770857554238699 12.257574512758097 48.412206171179974 0 0 0
7517 34 1 0.929157227509667 4.474828555952027 41.18630011300453 1 0 0
1881 14 1 7.186803521758828 22.539631593950215 41.49438304620594 0 0 0
1882 14 1 7.0998952450729 21.297146838181995 42.39678440379714 0 0 0
1883 14 1 8.528770760319107 21.135020225540604 42.84205831053765 0 0 0
1884 14 1 8.538192723791518 20.571520263089223 44.22289894872208 0 0 0
1885 33 1 13.24334262675953 22.138523865048267 43.15340411913602 0 0 0
1886 33 1 13.280364035965482 21.601336843765313 44.57702386174755 0 0 0
1887 33 1 14.65434475832408 21.252215592466122 45.00163055772768 0 0 0
1888 33 1 14.668161723317162 20.401632853906523 46.23839190429583 0 0 0
1889 33 1 15.980255016550732 19.886233836014366 46.6432523431957 0 0 0
1890 33 1 15.981327176896913 18.95023221123244 47.79259843420991 0 0 0
907 9 1 2.2772554038926645 10.82065585538427 37.40808125775613 0 0 0
4309 31 1 13.673773979802847 21.926963648175082 38.36083546362571 0 0 0
311 36 1 17.394655587561896 1.1507766369398063 48.098409044907804 0 0 0
3700 25 1 15.555957964757647 14.856662012072508 37.07503114368358 0 0 1
1875 51 1 1.9992448239097027 18.934973841136536 37.02486964959897 0 0 1
7305 63 1 5.272841662431142 2.4640612755877065 50.082651258164894 0 0 0
4924 36 1 18.42974048723379 25.90332428766644 40.4850326741695 0 0 0
3781 13 1 12.90746897812069 17.118031719118104 38.464916978260135 0 0 0
8579 3 1 4.553736026374553 15.60918708095887 48.73241918957106 0 0 0
2106 33 1 10.111267176859622 23.656531050154104 41.02195626379291 0 0 0
2107 33 1 11.577939644471535 23.329783224203954 41.366362474629 0 0 0
2108 33 1 11.851828708204952 22.62794076961962 42.73014280305907 0 0 0
2109 16 1 12.965777680740691 21.12613095774772 49.13170500718638 0 0 0
2110 16 1 14.339782229981155 21.259876361175017 49.7538600681463 0 0 0
2111 16 1 14.366713691957836 20.11068293033634 50.727268066904614 0 0 0
2112 16 1 15.661551173889022 20.0020741488429 51.450695010741214 0 0 0
2318 15 1 2.322999993774174 23.53589502388809 36.966330210157835 1 0 1
2343 18 1 17.634677863853998 22.30825884617793 49.33173914127225 0 0 0
7986 54 1 11.642688222935051 5.461863910495946 52.124819636474314 0 0 0
7518 34 1 1.8274507521049757 5.749567044459913 41.17536107228939 0 0 0
2554 18 1 8.75652842514827 1.5677953051596785 38.142612132430806 0 1 0
3861 28 1 11.342199972183021 18.465439027017148 37.15451696114499 0 0 1
7751 23 1 5.541810295184269 6.863208483551253 50.32866646389808 0 0 0
997 9 1 17.186290389192948 9.914832003439741 48.079458156615125 0 0 0
8501 5 1 11.27030256886352 10.291669263675578 52.12171136957249 0 0 0
3168 23 1 18.460846015260103 7.83493897814112 40.37447928398795 0 0 0
4308 31 1 12.403470104416638 22.708832341478818 38.18293713872609 0 0 0
2946 22 1 17.70262054286945 4.414573095264634 43.21049309485875 0 0 0
1444 13 1 17.438506420339095 14.280202222652122 48.05477275548973 0 0 0
2327 16 1 8.739407719322166 24.52388182800456 44.204080740295126 0 0 0
2328 16 1 10.098898047961564 24.535532464117875 44.82634964458933 0 0 0
2329 16 1 10.053897131830126 23.4759664402145 45.82301304002074 0 0 0
2330 16 1 11.242472405765296 23.54292623619445 46.7556368361704 0 0 0
2331 16 1 11.435954893105187 22.325791820039278 47.62156446357919 0 0 0
2332 16 1 12.727469549776208 22.284302605895878 48.26954406091808 0 0 0
2333 18 1 10.175100522999848 1.6401024960163415 40.884524256577876 0 1 0
2334 18 1 11.533838626655065 1.5013902125227256 41.61195337828076 0 1 0
2335 18 1 11.753406107157085 0.21637309322925996 42.39282182746356 0 1 0
2336 18 1 12.924714911534252 0.3800029892236764 43.36495663160478 0 1 0
2337 18 1 13.213975726331979 25.650243408441632 44.08136119720413 0 0 0
2338 18 1 14.411474472066642 25.84401885747095 44.946585336125636 0 0 0
2339 18 1 14.509797563861504 24.536848684097908 45.75305467933553 0 0 0
2340 18 1 15.736545437031952 24.535276785799837 46.623668075452606 0 0 0
2341 18 1 15.895283034113772 23.32535454019306 47.534586158932605 0 0 0
4092 31 1 18.06566255257612 18.141341817147893 44.76735328063954 0 0 0
5934 54 1 1.5818526464514173 14.178170591466326 51.611520098357424 0 0 0
220 3 1 4.125117021642284 2.052334105843162 38.583799796335214 0 0 0
2947 22 1 18.135867100411957 4.513290184451673 44.7498664154746 0 0 0
1214 11 1 2.5466554021406185 15.328048713098628 38.019534752431625 0 0 0
7521 34 1 4.119503003935051 7.107684966585753 44.060252325231225 0 0 0
3166 23 1 17.193270912842372 8.986991819837053 38.73467683789462 0 0 0
2555 18 1 8.908452491448514 2.7672183041641065 39.11975589420011 0 1 0
2556 18 1 10.194640929510511 2.8087463369835945 39.94966290434708 0 1 0
2557 64 1 14.533260871218125 2.312581631357943 40.614231491453964 0 0 0
2558 64 1 15.626076380407966 2.4085403830526433 41.74754230164606 0 0 0
2559 64 1 16.14963263652834 1.1059299378778533 42.013232480850604 0 0 0
2560 64 1 16.701146856622596 0.9819833640753057 43.50495585896031 0 0 0
5485 40 1 1.595684825986102 9.987162104835528 51.905449448158066 1 0 0
1879 14 1 5.300166598947965 21.241904128020714 40.161621673405534 0 0 0
9266 61 1 9.965591388759941 20.33500019624645 50.62249490886859 0 0 0
8582 3 1 6.266141346752528 14.43254033728208 51.861620590494915 0 0 0
7307 63 1 6.391469364370913 1.0744417571021792 51.891466539690796 0 0 0
2637 64 1 14.3148294058945 3.6746962497034823 39.924953495153844 0 0 0
9257 61 1 3.4558597834793887 24.547427953351217 42.51288742642981 0 0 0
8804 58 1 4.0129450639278375 19.95096184080512 43.60641085280237 0 0 0
1227 11 1 12.640672859842693 13.626129351933717 47.98153870981775 0 0 0
8500 5 1 10.576362403240445 10.292453373938828 50.78691388412381 0 0 0
2941 22 1 14.050728418181093 8.182822727232713 39.99033065358717 0 0 0
2942 22 1 14.760189363205372 6.921174708586479 40.28391956779703 0 0 0
2943 22 1 15.113947704388352 6.7569473159973725 41.72032634652269 0 0 0
2944 22 1 16.20362879381167 5.647773022553234 41.71827119878493 0 0 0
2945 22 1 16.57270783179103 5.425547331727995 43.184624086354766 0 0 0
7516 34 1 0.6332442027671633 4.111038434506173 39.701536591887006 1 0 0
6763 47 1 2.6695355329337342 22.22019777619559 51.63214314407874 1 0 0
7984 54 1 10.206459684648568 6.931815969125359 50.57150131450477 0 0 0
2321 15 1 4.0767687559963095 25.58022882672244 39.672541293506136 1 0 1
9641 64 1 4.901291882815474 1.7239885414025433 44.1951091058314 0 1 0
3328 26 1 16.592878028900397 10.201979712870031 43.047509767627844 0 0 0
7304 63 1 4.7143071805912715 2.5494639980656477 48.636173439277556 0 0 0
7300 63 1 1.429020926406507 4.511170527897652 45.82789803213023 0 0 0
8807 58 1 6.463377093623827 17.756921694386108 45.70016511183094 0 0 0
3323 26 1 13.4015219179051 12.634532199974451 38.339456623214375 0 0 0
3324 26 1 13.937972698321047 12.614318251004855 39.73148518271316 0 0 0
3325 26 1 14.6068138911335 11.295891421445173 40.02699446696158 0 0 0
3326 26 1 15.101174013559058 11.346010530496443 41.49038332578189 0 0 0
3327 26 1 16.006753753058575 10.171016143441365 41.67191477344954 0 0 0
6383 56 1 2.584120934832061 17.47878038065428 51.696853641089476 0 0 0
9255 61 1 1.9857301594701728 23.146850014321064 41.25081050343098 0 0 0
2322 15 1 5.476263542908638 25.947574831775526 40.10867923914463 0 0 1
845 9 1 15.502092403442303 6.592450866309757 51.15293038441532 0 0 0
1231 11 1 15.65891135743535 11.052864501019897 51.26387782691453 0 0 0
1880 14 1 5.796852440176094 22.47065778382384 40.81117380979472 0 0 0
3708 13 1 17.494200342147106 13.380937730512535 43.40756776364287 0 0 0
908 9 1 3.66916076995416 11.188451814286594 37.948976437709604 0 0 0
9347 63 1 4.987783810569454 24.451669881683802 50.207783567193445 0 0 0
3243 23 1 15.834829127431792 10.116899045913977 37.015046492950425 0 0 0
9639 64 1 3.1364836697269496 2.5928852675098586 42.68329538039647 0 1 0
396 6 1 15.978748980986587 3.4491064799662747 52.04527982220447 0 0 0
8496 5 1 7.660094137332235 12.458219326889392 47.1555853183097 0 0 0
8198 55 1 4.995181737751112 11.203616046570698 50.0455675574603 0 0 0
9649 64 1 11.020195677699054 23.863728908510204 50.8693111017817 0 0 0
8493 5 1 5.167946462056669 14.676459436582755 45.26329316066296 0 0 0
6764 47 1 3.3135670578824996 22.16394325902859 53.00413174904543 0 0 0
3782 13 1 13.810034575240888 17.17197455309094 39.761898443871765 0 0 0
12 3 1 15.601298001549441 24.63019946735391 51.03658367187322 0 -1 0
6380 56 1 0.5080599184300958 20.03653521278742 50.017214169570934 0 0 0
2323 15 1 5.620632200432301 0.2136157680421997 41.211574915506496 0 1 1
8801 58 1 1.2252297196975328 18.61261522960014 41.1387286419427 0 0 0
7753 23 1 6.793766546892095 5.647472261137445 52.131845920911246 0 0 0
4087 31 1 14.931497572350908 20.569452786095937 39.86894343419134 0 0 0
4088 31 1 15.01377295550942 20.270386865841477 41.391474650887645 0 0 0
4089 31 1 15.902024770234123 19.102044015918352 41.59970516297046 0 0 0
4090 31 1 16.673493624656913 19.188806268297316 42.8706531550495 0 0 0
5100 1 1 1.8955261113851496 5.683089903189344 51.72708242275052 1 0 0
2718 20 1 18.295092762769304 3.439013340299638 40.281371657116466 0 0 0
5933 54 1 1.120402422348124 14.11014447989957 50.239593356441674 1 0 0
13 3 1 16.005053023283978 25.794772263840596 51.93117123243492 0 -1 0
2717 20 1 18.494191933777262 3.970276726998577 38.929674860014885 0 0 0
4310 31 1 13.80309871754574 21.575009793305554 39.802941201880536 0 0 0
8575 3 1 1.3476096299347944 18.052750847336046 45.52110610250743 1 0 0
1655 12 1 7.135175592076888 19.587740370881214 37.86051871000918 0 0 1
7750 23 1 4.5893069013191665 6.549989034356112 49.243424820815804 0 0 0
7532 34 1 12.280230782528653 26.64939229502684 52.39499636791592 0 -1 0
4535 34 1 16.05830970422093 23.713993643266548 41.423864532597236 0 0 0
4536 34 1 16.42197554320048 23.470125888132124 42.84362369822978 0 0 0
1208 9 1 7.439727034098464 15.287776562463137 37.695685529586534 0 0 0
9267 61 1 10.742775375463095 19.07110561222998 50.706284069344164 0 0 0
8815 58 1 12.353705583388374 13.432023528235332 52.36806528492618 0 0 0
4533 32 1 17.856411183081907 22.633968022231386 38.13036328633665 0 0 1
1891 33 1 17.35850341865641 18.896158080746623 48.38976349437543 0 0 0
9346 63 1 4.799472370453002 24.806777645715854 48.803225347909546 0 0 0
4612 34 1 14.77398595598728 24.83882150429494 39.75160734471792 0 0 0
4613 34 1 14.792089046787348 24.560192321181724 41.20551323949229 0 0 0
7147 49 1 1.7880964685010223 0.7748155893893737 51.56669218350804 0 1 0
2635 64 1 13.034492839905027 4.939860768485342 37.96923725181838 0 0 0
9343 63 1 2.359364368404117 0.207650011314241 46.96228184653154 0 1 0
1232 11 1 15.966057317051591 12.350247900358442 51.93927622087792 0 0 0
9262 61 1 6.773970983585771 22.268032064842025 47.22251153727615 0 0 0
3165 23 1 17.189577833021644 9.59902043637966 37.366851781172485 0 0 0
9646 64 1 8.211725582878802 25.566720711839658 49.000667622790566 0 0 0
393 6 1 14.253435535583202 3.483064238105067 49.694143831527086 0 0 0
8499 5 1 9.58830261336356 11.392169001421543 50.51118585664983 0 0 0
9261 61 1 6.151870114228462 22.19086731250317 45.89680721806741 0 0 0
9260 61 1 5.67902627656547 23.586224908238368 45.51574812254889 0 0 0
219 3 1 2.7696898952417803 1.9145602917670261 38.07812412868003 0 0 0
2345 18 1 18.878510944669237 23.390658931802868 51.120545248649385 0 0 0
7303 63 1 3.551723563069714 3.500217458107132 48.74049832013403 0 0 0
601 6 1 2.1256687352245294 5.196316399392592 36.94132448111309 0 0 0
303 4 1 7.431751409918298 5.715376296922077 37.61945219575709 0 0 1
2320 15 1 3.7068211553728814 24.857690496569276 38.36477542677747 1 0 1
9264 61 1 8.547364140999067 21.446619206997084 48.91067447451085 0 0 0
9254 61 1 1.1226474736979861 21.939790579714817 41.02427285736812 0 0 0
7301 63 1 1.8229236285221773 4.6202712447950764 47.223023355031344 0 0 0
1229 11 1 14.203477760681226 12.242065211187821 49.71231271342515 0 0 0
7754 23 1 7.306735132323639 4.275247970952249 52.525652126683575 0 0 0
3401 26 1 12.507361348864553 13.745291956870604 38.13092969185004 0 0 0
4922 19 1 16.97004976131422 0.5477233049272513 38.92049521427115 0 1 1
9259 61 1 4.673582202597195 23.63152352698993 44.409560949361484 0 0 0
8581 3 1 6.060427849354388 14.487771453857833 50.378878146641625 0 0 0
8491 5 1 3.543357830413582 15.630636416216642 43.812518710859976 0 0 0
9651 64 1 12.281932650289315 22.216486635034794 52.41941018729611 0 0 0
846 9 1 15.849499814696761 7.406288054895828 52.40533355136867 0 0 0
9027 59 1 3.3523585830540252 21.247908646280116 47.14623878403825 0 0 0
9029 59 1 4.223260946886347 19.86845793261421 49.20675695766601 0 0 0
9640 64 1 3.8301696540839454 2.786039981256761 44.085598907169796 0 1 0
8803 58 1 3.457825575522419 19.709153104305738 42.145015348301335 0 0 0
844 9 1 14.147492988318286 7.031088140849649 50.7420482221112 0 0 0
9648 64 1 9.687204686799612 24.65129842500065 50.7608510390226 0 0 0
1228 11 1 12.941514671238929 12.419230855357226 48.84884713812755 0 0 0
1877 51 1 3.630205442604149 20.06210986270209 38.632464011117506 0 0 1
8197 55 1 4.776699972327112 11.126632115280335 48.57849543834282 0 0 0
2104 33 1 8.924445266130835 25.045491026476615 39.383472954026125 0 0 0
1226 11 1 11.402571493877446 13.546524646417295 47.00605386976212 0 0 0
8806 58 1 5.554942292489163 18.911555003426034 45.41441064097877 0 0 0
9269 61 1 12.333060819500814 17.916998610508887 52.262324516046846 0 0 0
9263 61 1 7.913009428289533 21.40059714035969 47.606895053654156 0 0 0
8489 5 1 1.9116574994849753 14.472263614245964 42.31477187729581 0 0 0
395 6 1 15.6853045736088 2.1985302850020165 51.275053395601724 0 0 0
2325 15 1 7.229717651692096 25.61775279490699 42.499380264640486 0 0 1
7523 34 1 5.716262783177547 5.968217339288436 45.68921559940863 0 0 0
7522 34 1 5.194901423042605 6.149622949957598 44.25587692903173 0 0 0
8805 58 1 4.78925059168589 18.724919700514842 44.132334536617385 0 0 0
9650 64 1 11.056531372231678 23.132800662340095 52.199224358930124 0 0 0
8200 55 1 6.618466234816933 10.384678517712166 51.78824873130087 0 0 0
827 59 1 8.032141810927898 10.364968064425678 37.32454836645165 0 0 0
7749 23 1 3.7018718954101995 7.757885939250221 49.0399921715224 0 0 0
7524 34 1 6.832580802707245 5.049555471028918 45.93457886686845 0 0 0
7525 34 1 7.164636217189528 4.931191318034842 47.33204787901715 0 0 0
7526 34 1 8.06134909503712 3.78821604483578 47.58483766905866 0 0 0
7527 34 1 8.39454381428579 3.5311301738018637 48.979755403292586 0 0 0
7528 34 1 9.516970792486013 2.562179599086128 49.064139842759964 0 0 0
7529 34 1 9.681391253728112 2.0524488014838487 50.48168473058622 0 0 0
7530 34 1 10.92318342567524 1.3053372342100868 50.67240905220113 0 0 0
7531 34 1 11.176741126008157 0.9566962112698496 52.05289134094164 0 0 0
9026 59 1 2.4581745779445745 22.474381845260684 46.83285944586302 0 0 0
8195 55 1 3.108766689571434 12.28208268104141 47.11162460488261 0 0 0
4923 19 1 18.12935978150474 26.151215867933896 39.02128208318936 0 0 1
378 36 1 8.859465176885747 6.008864285408425 38.083393799370015 0 0 0
8492 5 1 4.6965374768940915 14.57089093177994 43.89176087083818 0 0 0
9030 59 1 5.352049741043609 20.081241462867574 50.20184979021722 0 0 0
2940 20 1 17.241461785944253 4.744953602433142 38.519008652627406 0 0 0
5484 40 1 1.401734405662449 10.118103993276469 50.44988589188446 1 0 0
3862 28 1 12.407703134807116 18.465295393449896 38.172379261288434 0 0 1
8802 58 1 2.4166227262117297 18.58025265917062 42.15773938222765 0 0 0
3330 26 1 18.055519920971058 8.862187153293828 44.75819212422338 0 0 0
8193 55 1 1.2526262841845388 13.405376633271931 45.70411443361987 1 0 0
8583 3 1 7.472448721887705 13.665730313109995 52.17921746886532 0 0 0
7519 34 1 2.5312948475427 5.79624806891451 42.56343078643329 0 0 0
2553 18 1 7.3108920863050715 1.4704829583669299 37.63335705337446 0 1 0
7983 54 1 9.163915439429136 6.801690557421635 49.47111751015749 0 0 0
617 59 1 17.519643590968936 4.506207735928262 48.943758265789796 0 0 0
9350 63 1 7.460006607478611 22.1633892267863 52.36922252481361 0 0 0
3167 23 1 18.47290251928548 8.229057533782614 38.915857179265124 0 0 0
3707 13 1 16.77334532908692 14.589044015113103 43.032421093923716 0 0 0
8487 5 1 0.4385634776852463 13.198921025718303 41.02579666603062 0 0 0
8812 58 1 9.783482513484191 15.868087738000465 50.788069261722356 0 0 0
5486 40 1 2.2546435186750484 8.695236480119858 52.03719801960914 0 0 0
3783 13 1 14.367958286580743 15.84626254580613 40.11339044202954 0 0 0
9265 61 1 9.297245644887017 20.187754691860306 49.35385178235306 0 0 0
8578 3 1 3.370063384136327 16.541428078852366 48.5083256014297 0 0 0
7974 54 1 2.290792733150636 10.212429258907418 42.71262741153396 0 0 0