LAMMPS data file via write_data, version 23 Jun 2022, timestep = 11112117

8487 atoms
2 atom types
8471 bonds
3 bond types
8455 angles
3 angle types
8439 dihedrals
3 dihedral types

0 36.89775039 xlo xhi
0 26.67072 ylo yhi
21.29499511316571 215.45660928687323 zlo zhi
0 6.108747147460774 0 xy xz yz

Masses

1 14
2 15

Pair Coeffs # lj/cut/omp

1 0.0914 3.95
2 0.1947 3.75

Bond Coeffs # harmonic/omp

1 449.5 1.53
2 449.5 1.53
3 449.5 1.53

Angle Coeffs # harmonic/omp

1 62.0967 114
2 62.0967 114
3 62.0967 114

Dihedral Coeffs # opls/omp

1 1.411 -0.271 3.145 0
2 1.411 -0.271 3.145 0
3 1.411 -0.271 3.145 0

Atoms # molecular

8019 63 1 8.460724611037346 22.30363421939164 36.27337252664343 0 0 0
8288 64 1 2.6407851129929076 26.167759439652894 27.218575691222085 0 0 0
1972 20 1 14.138722207864497 1.096099755041082 24.46932790058882 0 0 0
439 5 1 6.861674952841327 8.511917128818228 21.297210729886647 0 0 0
912 10 1 8.696767350385871 12.935088671933913 23.203527744247154 0 0 0
3143 32 1 14.002217267508666 19.008227033875688 25.198518687156582 0 0 1
2363 24 1 13.116162564918422 5.6811184839476345 22.146040509397285 0 0 0
6958 9 1 2.7577139728453703 10.426474595057062 33.01043819862751 1 0 0
9 1 1 4.6936912543427285 1.7535982955832572 24.49136504963842 0 0 0
451 5 1 15.771255204032501 8.24156352339495 33.56885674779529 0 0 0
2893 10 1 14.156051889278116 15.146857243817411 23.23589403683427 0 0 0
688 9 1 4.403944285179143 10.190322538225422 24.20611224774356 0 0 0
448 5 1 14.19246236256936 7.998418948387486 30.030480008734656 0 0 0
3588 35 1 16.666204109846657 23.622723170221196 27.53015937687503 0 0 1
8012 63 1 3.1223846308350485 21.0947790801144 28.857556031332383 0 0 0
155 2 1 17.947576328557833 2.8557080002143063 35.65652161610852 0 0 0
6808 54 1 2.229706311246341 6.097944612587792 35.2040671985821 1 0 0
7063 55 1 11.204779802967922 13.116463644095655 39.660461238383924 0 0 0
387 42 1 4.580921900146748 6.0170899472308035 23.073622686905807 0 0 1
1443 14 1 5.1815025746066015 19.842029399644694 25.55369849033441 0 0 0
1977 20 1 18.42749523635449 1.0483937387698534 29.264748565259783 0 0 0
1974 20 1 15.650325883362333 0.7313182832326026 26.513520883312808 0 0 0
7499 59 1 0.529671378757424 17.698124766484213 25.44250357141975 0 0 0
8292 64 1 5.75505996481547 26.270460978741273 31.28277268898617 0 0 0
8043 48 1 2.318133253736411 23.89315088443284 33.08707610703135 1 0 1
3106 50 1 17.065129883140006 18.857382405517978 27.66563126737434 0 0 0
695 10 1 13.922733014448244 12.169864664027966 30.543539066077386 0 0 0
1677 18 1 7.352780123972495 23.550490451531164 28.86489086489335 0 0 0
386 42 1 3.1100410542013 6.240319206384275 22.633947805488074 0 0 1
1439 13 1 2.3538169136248053 20.313208342738875 21.462971346076895 0 0 1
7 1 1 3.1997369710725074 1.6747835778898201 22.255449562176977 0 0 0
2030 20 1 12.882860504996096 1.3551640244757819 22.277996414055814 0 0 0
151 2 1 15.297806882501417 3.0458840005199166 31.37518733977841 0 0 0
144 2 1 9.668753553659167 4.059849134135006 24.30359919595533 0 0 0
145 2 1 10.989375776644453 3.563963836533533 24.988022055131548 0 0 0
443 5 1 10.078588359130933 8.614486388389155 25.276424920007887 0 0 0
1139 11 1 6.685920472071832 14.771833709497233 27.772793985711836 0 0 0
1668 15 1 9.148765264394411 22.283213365867343 24.065570936079993 0 0 0
452 5 1 16.75713306347432 7.383275652746995 34.27133159564241 0 0 0
450 5 1 15.547711687184433 7.886511479777018 32.053378266464506 0 0 0
2373 26 1 18.26746538134822 8.694555970732969 23.415661126027267 0 0 0
171 3 1 10.538213619282198 6.149558891310708 31.22218396341021 0 0 0
172 3 1 10.612127959155133 5.561262631998426 32.62773599749069 0 0 0
173 3 1 11.820329227123064 6.048042923177088 33.473377243431244 0 0 0
174 3 1 12.006138084542089 5.366843738097929 34.8141509723464 0 0 0
175 3 1 13.246482948707177 5.997786143670372 35.52518434498792 0 0 0
176 3 1 13.354993256711474 5.565161986753251 37.024381889680754 0 0 0
177 3 1 14.769449434021986 5.726699738418217 37.54765281591884 0 0 0
1192 12 1 8.39828412497148 17.048634029420395 23.176625980090037 0 0 0
7282 3 1 2.5106322008734594 14.586196896312435 34.61209726402217 0 0 0
6602 53 1 10.194735077372215 3.699537753649097 38.844655780133465 0 0 0
179 3 1 16.240259379009707 5.524798145082034 39.61516288617038 0 0 0
1457 15 1 18.65497654770297 20.69739950263019 37.52089695040963 0 0 0
6383 18 1 4.579503131821934 1.5542878450251958 37.86356481010295 0 0 0
1667 34 1 7.982552112130301 21.55790575725923 23.37458770492003 0 0 1
1455 15 1 17.07422581697716 21.251402647333137 35.715667906175575 0 0 0
8299 64 1 10.255685735574476 25.807995253206684 39.12877514407313 0 0 0
911 41 1 8.03264623189323 12.15719559654247 22.08045878508202 0 0 1
447 5 1 12.936932795843697 8.45785565193104 29.2302586782698 0 0 0
12 1 1 7.325564404242786 1.7649549802473776 27.102895572040467 0 0 0
440 5 1 8.170518742902233 8.220135503218481 21.940083515650898 0 0 0
6960 9 1 4.314159931187506 10.133867978832875 34.93713805428118 1 0 0
393 3 1 9.165647413012866 5.955250070885429 29.065203364525996 0 0 0
394 3 1 9.244910622331705 5.7377217329087875 30.583106257444214 0 0 0
7717 26 1 0.9250757660163114 19.53987400851264 31.50741551930969 1 0 0
7051 55 1 2.3379408642300263 12.770210243845117 27.115974563958464 0 0 0
697 10 1 15.208368290429048 11.942928569994326 32.5203909831543 0 0 0
2595 14 1 17.602367152525012 10.567724150530575 30.047730461877567 0 0 0
389 3 1 6.046164431291707 6.133899731244544 25.137163787149454 0 0 0
3584 35 1 13.536899470404752 23.825668482752626 23.64506359364657 0 0 1
7513 59 1 11.628623437723462 17.156476733196484 39.59301308151781 0 0 0
4513 43 1 0.7483912382816342 7.997017371488691 38.98816703858175 0 0 0
915 10 1 11.242886596391076 12.181786257630892 26.24682124440777 0 0 0
2684 47 1 18.26912887063042 12.535814616106265 24.635640287168165 0 0 0
3141 32 1 12.428157951495828 18.737613261404334 23.038752170628932 0 0 1
453 5 1 17.15142371113927 7.862990657590195 35.65559161954146 0 0 0
4049 39 1 1.9809679485480203 4.1919893196283375 39.56233290777641 1 0 0
687 9 1 3.945164109704336 10.766321667805052 22.857640725477058 0 0 0
7725 26 1 6.969734479916466 19.281673594368325 39.77948131672143 0 0 0
15 1 1 9.082683515358912 1.2105473216938216 30.52318148955988 0 0 0
3145 32 1 15.65768940998098 19.232145006527166 27.146041853735568 0 0 1
2594 14 1 17.303698634401485 10.066384880504664 28.616953126535236 0 0 0
469 9 1 8.543275384621793 10.542505854611402 29.186141502032854 0 0 0
470 9 1 8.939199371964111 9.74601064566844 30.427937635459983 0 0 0
471 9 1 9.98781634517071 10.409542361268107 31.31025762651774 0 0 0
472 9 1 10.207095426675005 9.57061104507785 32.55046349400013 0 0 0
473 9 1 11.09420197403243 10.317794744332593 33.514397069000836 0 0 0
474 9 1 11.84096031567296 9.516731628992563 34.63979310837921 0 0 0
475 9 1 12.733121894725297 10.375783372145802 35.53121177464287 0 0 0
6918 55 1 7.294090498695641 7.751064079216772 33.43434493005684 1 0 0
4938 51 1 2.1861339022580735 12.282229222718877 39.64643041526044 1 0 1
693 10 1 12.476266284572802 12.131021632648881 28.373758974188128 0 0 0
14 1 1 8.832835287356245 1.6641382892816485 29.140551449158266 0 0 0
3590 35 1 18.24735044251587 23.772441117652832 29.43997762337174 0 0 1
696 10 1 14.100831828271481 12.74068793952622 31.886699383267235 0 0 0
11 1 1 5.988511871305897 1.5779590368256353 26.516736208731874 0 0 0
1232 14 1 15.231129886701927 19.272270290202478 38.69302225581371 0 0 0
2895 10 1 15.399419338328112 15.162867426416932 25.48725964171702 0 0 0
913 10 1 9.666063590160105 12.177921795311828 24.08980079905252 0 0 0
8044 48 1 2.601927744312027 23.467378808930228 34.55274641563365 1 0 1
441 5 1 8.358764777815168 8.810903086034395 23.365035965105154 0 0 0
2365 24 1 14.352287893454688 5.608870535720245 24.401407643011293 0 0 0
6378 18 1 1.2430341877925062 1.4168696806015038 32.299005793586424 0 0 0
8009 63 1 1.2325638702439528 22.08620212632943 25.55440761850754 0 0 0
692 9 1 7.474359570481421 9.945914927848392 28.312346662715626 0 0 0
6917 55 1 5.906407605759518 7.749262322883682 32.85667695075413 1 0 0
1198 12 1 12.7769174156971 16.688478785118896 29.400529598937986 0 0 0
689 9 1 5.589772634452817 10.797822446500382 24.984266600474758 0 0 0
1940 7 1 18.28572063263747 25.96903442139201 36.83351488773347 0 0 0
8020 63 1 9.294892015796679 21.428790080157363 37.177019039150736 0 0 0
1675 18 1 5.739664900591753 23.907731843399443 26.74224433650223 0 0 0
1445 14 1 6.522653485989296 19.644297365028383 27.72350854422999 0 0 0
156 2 1 18.06192057190664 3.3212336146864714 37.14404971308002 0 0 0
6382 18 1 3.810898417404087 0.8280625442133102 36.76568918349811 0 0 0
3107 50 1 17.173806640814178 18.915904615229934 29.150539629191748 0 0 0
1971 20 1 13.942283834409201 1.9934092140920974 23.267813751635412 0 0 0
4048 39 1 1.1434209649945832 3.4629006454410747 38.54895098759272 1 0 0
1137 11 1 5.159316027902582 14.967480601690122 25.621727957843476 0 0 0
1932 19 1 9.169719662195625 26.09601808245283 23.06818068566876 0 0 1
7722 26 1 4.210286178210029 18.84482925038113 37.086836609968756 1 0 0
6916 55 1 5.652048637802907 7.832961056821408 31.34317159370918 1 0 0
8287 64 1 1.371601328761354 26.556648853529584 26.472335797314408 0 0 0
2592 14 1 16.04481448250081 10.224606697273309 26.479922020667228 0 0 0
917 11 1 8.239064014119375 14.91270430483285 29.650778196340024 0 0 0
918 11 1 9.390588017622907 14.276425492980236 30.451067439994063 0 0 0
919 11 1 9.80276066994677 15.182199830435003 31.580000090382637 0 0 0
920 11 1 10.742794427059431 14.5501603508429 32.59995677457265 0 0 0
921 11 1 11.005704096592954 15.311557679930438 33.942018362681786 0 0 0
922 11 1 12.106499888734186 14.59415887146109 34.68624892024266 0 0 0
923 11 1 12.768195290298406 15.405366413838623 35.82070637839596 0 0 0
7062 55 1 10.85352151155837 12.440364189102068 38.309427496220366 0 0 0
1676 18 1 7.1090583047214695 23.72951223959559 27.392426174647287 0 0 0
7053 55 1 3.641926019988928 12.836751231237539 29.43895189716651 0 0 0
6812 54 1 5.481616461503303 6.258495001657026 39.156353403992625 1 0 0
6811 54 1 5.132935328283073 5.823074666593847 37.78010088905878 1 0 0
1193 12 1 8.876339753779016 17.752116932815834 24.41556267800548 0 0 0
8008 63 1 0.3388633687123243 21.4299746866882 24.56582245873155 0 0 0
7287 3 1 6.158912376200394 14.346434786671962 39.51665978276062 0 0 0
143 2 1 9.447604888042108 3.5963547325431917 22.930673288584316 0 0 0
1933 19 1 9.16807964312798 26.013720680007918 24.643893656216463 0 0 1
1194 12 1 9.688455471964872 16.82564863745135 25.246571649809027 0 0 0
1197 12 1 11.725617980030545 17.423075586746034 28.56263263702251 0 0 0
6881 40 1 1.1007228183566555 7.88610579364731 26.773914210733007 1 0 1
6810 54 1 3.7858442715603013 6.315713122803802 37.214970944553016 1 0 0
478 9 1 14.540538791790292 9.627084500242395 38.9086489644056 0 0 0
3591 20 1 18.534437557750156 23.308243237658324 30.878527892795006 0 0 0
3586 35 1 15.354442574940236 23.495832908369273 25.380177118024793 0 0 1
6956 9 1 0.9850835922587722 10.539961116877361 31.096890601101407 1 0 0
6595 53 1 5.430262224167694 3.4086432374453266 31.42051922380398 0 0 0
153 2 1 16.68428242173535 3.1228242404193893 33.48363392721484 0 0 0
2682 47 1 16.835704886203178 12.596467050484362 22.5480169994591 0 0 0
6959 9 1 3.0030456004047292 9.827313002953225 34.322945417892846 1 0 0
3814 36 1 17.37798404121515 25.571820662403546 22.423408562555252 0 0 1
1203 12 1 16.652482950258012 17.16886813196378 34.656913598867106 0 0 0
2371 26 1 16.67839420260684 8.795765553860724 21.482820361710925 0 0 0
700 10 1 16.65848833647882 12.417401348227262 36.02131096529115 0 0 0
8022 63 1 10.852322356919357 21.318808837871853 39.14385289801993 0 0 0
698 10 1 15.243488227794847 12.32659266585968 34.01379004170887 0 0 0
7719 26 1 2.483380124848211 19.466598601650535 33.516230809645776 1 0 0
477 9 1 14.04378026765802 10.45506077621244 37.7372450094488 0 0 0
2141 22 1 17.26773482243541 3.28168468007795 22.573822474425466 0 0 1
152 2 1 15.296941093624197 3.366674823654189 32.81890148557867 0 0 0
1674 18 1 5.7836693715874015 23.852883303246244 25.186256265944614 0 0 0
914 10 1 10.195944104067737 12.855726502273576 25.333658070185244 0 0 0
1225 14 1 9.795100330753478 19.882641986730015 31.639771549565502 0 0 0
1226 14 1 10.602108553013343 18.935414572774434 32.57238428119928 0 0 0
1227 14 1 11.054568041751054 19.590575402037338 33.840529398719795 0 0 0
1228 14 1 12.102670915880166 18.882800586259282 34.6711964035497 0 0 0
1229 14 1 12.518163153399547 19.770964545188797 35.82222171931407 0 0 0
3071 25 1 17.500455445795016 16.680314175455113 22.4724885736648 0 0 1
3364 34 1 17.011853655244284 21.817922357072842 21.532850546172288 0 0 1
6884 40 1 3.956902701277852 8.322697616914724 29.467774317868397 1 0 1
686 9 1 2.667606990618953 10.080020733339476 22.361659306712898 0 0 0
150 2 1 14.037295457379798 3.4281417510082455 30.720018190990046 0 0 0
1976 20 1 17.11924572255257 0.6748269082842737 28.61680576891554 0 0 0
6379 18 1 1.6458781056790759 1.9902167345910817 33.66387433643479 0 0 0
8295 64 1 7.273204892226052 26.22608570027827 34.915776744773716 0 0 0
1135 11 1 3.8885331423823217 15.09719033724799 23.357913113978253 0 0 0
6813 54 1 6.6743496519001475 5.555549707244901 39.769820081539066 1 0 0
6601 53 1 10.105930893491756 3.2517011533854894 37.39748653759759 0 0 0
8297 64 1 8.68198262379125 26.00756037384871 37.145892326267145 0 0 0
6964 9 1 7.036618936471917 10.603139453030453 38.99776310807461 0 0 0
3140 32 1 12.504602329201028 18.870496659028095 21.541513008498335 0 0 1
6883 40 1 2.575708675208618 7.919869873634341 28.879704307005486 1 0 1
1666 34 1 7.63828728553241 22.474687234611107 22.183263156982363 0 0 1
7280 3 1 1.098343632520134 14.65710654357061 32.48147777038997 0 0 0
1448 14 1 9.051912626989836 19.101726392334065 30.466361461954364 0 0 0
1449 15 1 12.811398713165111 21.056976896362347 29.417536924886555 0 0 0
1450 15 1 14.067197803678354 21.56063254472802 30.01652596708162 0 0 0
1451 15 1 14.278106803658305 21.078846493074675 31.47571656272354 0 0 0
1452 15 1 15.364001546674952 21.805071022746265 32.24165795232652 0 0 0
1453 15 1 15.655997524212655 21.24563381688008 33.68495148085271 0 0 0
1454 15 1 16.755999733163886 21.895652403728274 34.41917299155705 0 0 0
3144 32 1 15.346452139840599 18.635188179348923 25.768748542446136 0 0 1
6591 53 1 2.4931797397497193 3.6872831129898733 27.336743197476824 0 0 0
8010 63 1 1.5744786161112112 21.28826187501152 26.797908891769907 0 0 0
8047 53 1 5.353869725652603 23.852250410876024 37.40031682807842 1 0 0
7511 59 1 9.99013084877506 17.44473897526833 37.64639612867567 0 0 0
1685 18 1 13.452820009830758 23.735131716934408 36.888502512761534 0 0 0
444 5 1 11.343124754700545 7.972453523052852 25.726981469379602 0 0 0
392 3 1 7.738085611047862 5.808881324823906 28.542538145291633 0 0 0
1441 13 1 3.7087214230995142 19.984054043394845 23.425236017449432 0 0 1
1896 18 1 4.463989445372497 24.197094060262156 22.909090884496596 0 0 0
1671 15 1 11.30818033438159 21.105133432322322 27.3408661762551 0 0 0
1672 15 1 12.656719198505193 21.44866044311799 27.943578239783506 0 0 0
6807 54 1 2.2446214205914505 5.9161477152562165 33.6836270198114 1 0 0
2143 24 1 15.451590449210833 5.473875775391714 26.60787493352003 0 0 0
6380 18 1 2.5639942284527333 1.0693121442493165 34.54686281986263 0 0 0
17 1 1 10.490832104562314 1.2418763157272321 32.594712588281524 0 0 0
2900 10 1 18.109804666063734 14.482143769802217 31.27870242292171 0 0 0
2898 10 1 16.879044270697197 14.500705430155033 29.083541095424778 0 0 0
1679 18 1 8.941572160695808 23.38010044827839 30.73686451539836 0 0 0
1680 18 1 10.268803251211805 23.840733999529117 31.306345824127817 0 0 0
1681 18 1 10.380039619908382 23.462084490321597 32.74980829768934 0 0 0
1682 18 1 11.729220358565671 24.005343118563893 33.28724040339142 0 0 0
1683 18 1 12.09536437426581 23.784034463811825 34.748421137647654 0 0 0
146 2 1 11.147110297467119 4.092181207046443 26.454907915423057 0 0 0
6805 54 1 0.728998415146362 6.022984762371608 31.56035785512152 1 0 0
6385 18 1 6.440053465024145 1.421479964816813 39.691639737159306 0 0 0
2894 10 1 14.135363834343087 14.803040562029356 24.71163180314216 0 0 0
8016 63 1 6.0820927734791566 21.499989669446034 33.07643983447779 0 0 0
2630 14 1 13.089057156420639 10.398839790731506 22.311002265280656 0 0 0
3365 34 1 16.991776900205515 21.3449883227941 22.982617507643095 0 0 1
8298 64 1 10.142547951215946 26.02758018101909 37.67828530047908 0 0 0
1231 14 1 14.185072785076496 19.951469666901865 37.747757648497995 0 0 0
6957 9 1 1.4336245395115985 9.944474482377391 32.41739772767623 1 0 0
1134 11 1 3.2894185657589956 14.48860108333676 22.100713162668868 0 0 0
8296 64 1 8.56266669235965 26.3182456766074 35.69650894381998 0 0 0
1934 7 1 13.806162147748523 25.552362846592576 30.612837758503908 0 0 0
1935 7 1 15.265914596665109 25.4571797012817 31.15523764679573 0 0 0
1936 7 1 15.486757863997514 26.085381716054762 32.608414876457125 0 0 0
1937 7 1 16.580534171479194 25.386094378056335 33.44559532309903 0 0 0
7285 3 1 5.126982006036175 14.718142047610915 37.3593429386607 0 0 0
2899 10 1 18.09667116847223 15.000570476624171 29.89186813337536 0 0 0
8 1 1 4.605710762106 1.8504510139586388 22.988079039548296 0 0 0
3589 35 1 16.969180676956736 23.209198960564315 28.97484285915572 0 0 1
24 1 1 15.919903756285951 1.3123569386565084 39.548039440104205 0 0 0
2591 14 1 14.751983692981122 10.622574646114634 25.827957152063043 0 0 0
8291 64 1 4.376388618455537 0.07352314915101517 30.759699038604857 0 1 0
442 5 1 9.636381318541973 8.221054554557968 23.85047029072862 0 0 0
1684 18 1 13.390285833734529 24.067923417703344 35.3908007818755 0 0 0
1136 11 1 4.736454920541255 14.211894202181218 24.306673790418422 0 0 0
1967 7 1 10.91121027492509 25.759427335570997 26.562789694722817 0 0 0
1968 7 1 12.346018784934857 25.729982337655443 26.982666480133453 0 0 0
1969 7 1 12.388137931506499 25.69468968164717 28.531981548654628 0 0 0
1970 7 1 13.681988131839743 25.256720124655413 29.141862297706602 0 0 0
916 10 1 11.756375982012884 13.027373538614537 27.37895667949682 0 0 0
6880 40 1 0.9403770669032416 8.051493790156693 25.294536164108322 1 0 1
2144 24 1 16.250859792943984 6.226234021631949 27.65935697779515 0 0 0
6882 40 1 2.516852771278097 8.141465581889156 27.354693705714634 1 0 1
1973 20 1 15.157038902678261 1.6783108691981565 25.426318423891786 0 0 0
7507 59 1 6.836954818451822 17.602511015758562 33.529672908294344 0 0 0
2631 14 1 13.194793777254828 10.54561849896872 23.833333766091027 0 0 0
147 2 1 12.357367964856662 3.544667947624046 27.18120085666277 0 0 0
1133 52 1 2.286812128892476 15.378202529555194 21.313955804814302 0 0 1
5161 51 1 0.8333978009927339 12.484480376034142 38.990182940410534 1 0 1
1678 18 1 8.816453552163361 23.5855616776763 29.235057247277805 0 0 0
449 5 1 14.25652279476041 8.464627098525037 31.519529311571077 0 0 0
691 9 1 7.080303154491758 10.756654883953287 27.06472202402723 0 0 0
1230 14 1 13.407263878622185 18.99167469082461 36.85887302938565 0 0 0
23 1 1 14.603760813073198 1.0081140617946627 38.94700170861683 0 0 0
6922 55 1 9.834456522052355 8.134653059260296 37.64675762701477 0 0 0
3142 32 1 13.770089179672702 18.525895120352278 23.734671893795813 0 0 1
1456 15 1 18.314829241582014 21.636863939432594 36.40126092582205 0 0 0
6593 53 1 4.051335581554661 3.6830874101148248 29.262079530091224 0 0 0
6924 55 1 11.412110393802875 7.852525846003982 39.67061586159382 0 0 0
1686 18 1 14.694724438414264 24.241749232234394 37.52934535118146 0 0 0
6919 55 1 7.247762825824246 7.6377201597729725 34.933937401427016 0 0 0
1442 14 1 4.495210434899288 19.15366905449436 24.422594302593826 0 0 0
2590 14 1 14.491374552225896 10.084350023253688 24.437279318686432 0 0 0
8048 53 1 5.428662678753075 23.133703380626283 38.8117881750872 1 0 0
3583 35 1 12.732396858196276 22.992217192829276 22.63497495513471 0 0 1
2145 24 1 16.89364863479929 5.290033379154629 28.67465581530972 0 0 0
8049 53 1 6.610976981071322 23.71518075856918 39.65622804501991 1 0 0
5686 33 1 1.1975141012824548 20.804903729349547 38.68060290695105 1 0 1
1191 12 1 7.641699681003192 17.96929437097752 22.347317038897163 0 0 0
8013 63 1 3.8006809344436507 21.96338652989875 29.843546652673194 0 0 0
6915 55 1 4.188745195241062 8.087937945887308 30.935487911260022 1 0 0
1966 7 1 10.6626956459703 25.971958788845686 25.04797093063977 0 0 0
7055 55 1 5.18306792814279 12.846656856917738 31.464507700787806 0 0 0
20 1 1 12.996409085441131 1.5821912405974896 35.4396702115224 0 0 0
7502 59 1 3.2262302797236115 16.68835177616817 28.32356531303415 0 0 0
701 10 1 17.924583653515256 11.871805703013141 36.749475646631055 0 0 0
1206 12 1 18.43821732619112 16.10147611334301 38.07717675196102 0 0 0
390 3 1 6.1644532638040275 5.88332141452984 26.62279047720414 0 0 0
8290 64 1 4.282806875326162 26.485123388993117 29.264434934544415 0 0 0
8293 64 1 5.872202894829766 26.186383299629863 32.81178182783299 0 0 0
3813 36 1 16.607589236442383 26.484428730420326 21.555244588906007 0 0 1
7500 59 1 1.6830202493217195 16.971919347496204 26.195442223405667 0 0 0
1939 7 1 17.813258567612056 25.356086220393685 35.549557470920014 0 0 0
1195 12 1 10.065600209912024 17.423206262017118 26.592720822477038 0 0 0
6963 9 1 5.671463340436367 10.175316027396482 38.50885122513536 0 0 0
1447 14 1 8.19597580598436 19.963468604175304 29.52501105277957 0 0 0
1669 15 1 9.649601310535761 21.57780711879955 25.342813295988737 0 0 0
1673 18 1 4.453194741947346 23.83626714128464 24.391763464444693 0 0 0
2364 24 1 13.909237169140505 6.4668708692380275 23.196649264818852 0 0 0
18 1 1 11.842026749250715 1.513375223376849 33.276983804910145 0 0 0
3072 50 1 18.411591144568945 18.991055283214155 31.31385233227953 0 0 0
7506 59 1 6.14489913816627 16.724351292895392 32.438134297019786 0 0 0
7501 59 1 2.0608647501646113 17.461431007831422 27.613601412367643 0 0 0
2593 14 1 16.03172018817355 10.580716093199923 27.920875762226135 0 0 0
2897 10 1 16.75021199105971 15.03632267902728 27.65728003911868 0 0 0
1204 12 1 17.123658420093545 16.24372892589739 35.817974998991204 0 0 0
7510 59 1 8.829644029690138 16.74383077856903 36.85993798852151 0 0 0
178 3 1 14.859644574853228 5.277467868259167 39.02764772781988 0 0 0
21 1 1 13.027995685323218 1.2824672104756405 36.94046147211978 0 0 0
925 11 1 14.181475451826602 15.105013125060829 37.999938069117796 0 0 0
1938 7 1 16.669362003602078 26.077588965052012 34.80921018887908 0 0 0
7281 3 1 2.42467061296314 15.143754666828569 33.127253814452644 0 0 0
8014 63 1 4.658362383868713 21.290272503319787 30.986601598762995 0 0 0
1440 13 1 2.9350121170819716 19.276063694910945 22.339696010069538 0 0 1
8294 64 1 7.270149758717548 26.28947479812263 33.36371071982018 0 0 0
388 3 1 4.643990721738772 5.930627487414636 24.538854967511824 0 0 0
7049 55 1 0.7743264194842893 12.602852291235227 25.19854499934668 0 0 0
6384 18 1 5.592161470458345 0.671295803060505 38.65611361152578 0 0 0
3585 35 1 13.997756585398067 22.988128506590954 24.87387385314197 0 0 1
2896 10 1 15.47656384892713 14.574116430214632 26.92909516274695 0 0 0
1975 20 1 16.862266758299445 1.252464442900884 27.273594342624094 0 0 0
6600 53 1 8.67797400218063 3.621455923618228 36.89406804033447 0 0 0
7279 3 1 0.7686652642035112 15.344657067491404 31.19734420040612 0 0 0
8046 53 1 4.000834447812231 23.526093095454698 36.7344592496248 1 0 0
7508 59 1 7.347678769675648 16.806937054473828 34.70622695619121 0 0 0
7512 59 1 10.37496628860825 16.613171200919318 38.881982103586964 0 0 0
8018 63 1 7.7961497096270715 21.56231116081577 35.08465048527817 0 0 0
6923 55 1 10.033599595696108 7.549307988740067 39.06973456357855 0 0 0
8045 53 1 3.765929335491438 24.094870326207495 35.29151647330194 1 0 0
7052 55 1 3.0296840359826875 12.07383807115485 28.286037444556992 0 0 0
6809 54 1 3.5840677266274916 5.791214858521237 35.838221789493915 1 0 0
7724 26 1 5.618231467308726 18.918209488075288 39.13442560682495 0 0 0
6150 6 1 1.8818404698527278 26.1825250259807 39.853149961258296 1 0 0
391 3 1 7.625662375093377 6.008883329496792 27.059030871348945 0 0 0
5406 44 1 0.8690832538613258 16.326991235937562 38.753326475942885 0 0 0
7505 59 1 5.077094106334248 17.430806815059178 31.603762347261288 0 0 0
1138 11 1 6.225771784426903 14.213779886007282 26.399691465789125 0 0 0
6381 18 1 3.0740521664235265 1.773801107433687 35.78821754297802 0 0 0
19 1 1 11.661594814481374 1.277130089888862 34.779572272258804 0 0 0
2140 22 1 16.793781293237544 4.243273724429064 21.49695892316035 0 0 1
1688 18 1 16.282113563236088 23.999459890433133 39.44831417765397 0 0 0
16 1 1 10.45960200183618 1.6598379672482535 31.083634155795615 0 0 0
13 1 1 7.432732108994251 1.453640589228192 28.60269270974387 0 0 0
3108 50 1 18.527113005728282 18.645581160620655 29.84797308987992 0 0 0
6590 53 1 1.4646949151721933 4.468811849286589 26.52152231517548 1 0 0
4514 43 1 1.6726995180993063 8.653244310482345 39.94401853283592 0 0 0
6149 6 1 1.341619914657341 25.3903156630113 38.701309512243995 1 0 0
7286 3 1 4.977711782178678 15.072740811958013 38.83276638956197 0 0 0
924 11 1 13.672434683627108 14.521631468160043 36.67239346658239 0 0 0
154 2 1 16.701089242567253 3.4182759323348635 34.986358534019594 0 0 0
6592 53 1 2.7859161634138805 4.265992333978361 28.668039323906847 0 0 0
5407 44 1 1.7796537858319166 17.16281953092338 39.57907555913555 0 0 0
149 2 1 13.837106993716501 3.2753865532473547 29.182153480192568 0 0 0
6962 9 1 5.558911775536509 10.293056162147016 37.021042196464975 0 0 0
7058 55 1 7.838535941553923 12.162842215856033 34.29248242753251 0 0 0
8289 64 1 2.944668661472238 0.053379973572978634 28.61068719512465 0 1 0
1200 12 1 14.079268168008575 16.667901045843305 31.68360709538952 0 0 0
1687 18 1 14.913416307389346 23.70254006069186 38.94539220923058 0 0 0
694 10 1 12.865868534896524 12.850083349434058 29.6693707294432 0 0 0
927 11 1 15.500166810599215 15.009568330811623 40.14559786829234 0 0 0
1670 15 1 10.938375728707863 21.96747517225071 26.109569251334836 0 0 0
1978 20 1 18.626991502548982 0.653962747473061 30.732084722437897 0 0 0
699 10 1 16.5373209637353 11.799775112841585 34.64340292270527 0 0 0
1202 12 1 15.62371213823572 16.613464359090994 33.71864206264305 0 0 0
6961 9 1 4.383244012594954 9.631255741717304 36.38411815173935 1 0 0
1201 12 1 15.065472432374541 17.379235205076437 32.571272804181625 0 0 0
1196 12 1 11.127414606175696 16.620591769787158 27.43875227847334 0 0 0
6920 55 1 8.58384411600162 7.959162932134506 35.57137946830633 0 0 0
7059 55 1 8.22885221692457 12.913519569665247 35.536169535304616 0 0 0
8021 63 1 10.048837839438592 22.184401654022217 38.18875989401458 0 0 0
6594 53 1 4.239258673335647 4.1422627511206365 30.711890743914942 0 0 0
142 2 1 8.046336456493103 4.001941729810909 22.488502012153326 0 0 0
1444 14 1 5.962288240045046 18.890477510393247 26.504089564876416 0 0 0
2929 10 1 12.772297943642798 14.949956361284167 22.626799218580405 0 0 0
8017 63 1 7.061554559894874 22.333985092902797 33.92023411531073 0 0 0
3366 34 1 18.429080656077485 21.486868584554585 23.515585735734568 0 0 1
6589 53 1 1.0318416766275447 3.790932359909321 25.262428249892622 1 0 0
7283 3 1 3.8273271974806677 14.828410739369845 35.24013222438728 0 0 0
1199 12 1 13.542879623656907 17.425804149221776 30.516468650775835 0 0 0
1233 14 1 15.72329208630451 19.913325229966226 39.993753441175855 0 0 0
7060 55 1 9.311543518623534 12.264071378831215 36.33664594691831 0 0 0
6596 53 1 5.584001692926834 3.6035631686887903 32.93557926472482 0 0 0
6597 53 1 6.939238084049845 3.324925871783689 33.5174570336907 0 0 0
6598 53 1 7.109497883864077 3.8710952909339684 34.908742994880015 0 0 0
6599 53 1 8.428544589268467 3.3157864886531807 35.420202695984464 0 0 0
1931 19 1 7.796666492183358 26.39614267564306 22.361935961239997 0 0 1
1205 12 1 17.901459203131452 16.925062024225145 36.897219383849304 0 0 0
8042 48 1 1.1647716151423402 23.053719382391346 32.39620615404493 1 0 1
2146 24 1 17.959334254948427 6.006797765747932 29.523443642845102 0 0 0
2629 14 1 11.679464514701406 10.67021774411821 21.779725051327492 0 0 0
3587 35 1 15.648198392566067 22.843472529891482 26.68805064268463 0 0 1
1895 18 1 3.213986511075492 24.03372130903699 22.08022971201577 0 0 0
7504 59 1 4.691987319699485 16.708615213136536 30.276130106926473 0 0 0
8015 63 1 5.491123487198051 22.262476563145746 31.78983083960722 0 0 0
6921 55 1 8.651673927288384 7.4613847581623665 36.98053088353803 0 0 0
6806 54 1 0.880944757910808 6.108862519113586 33.055039221581666 1 0 0
7050 55 1 1.3244608622380962 11.864587988520714 26.43109462894871 0 0 0
7721 26 1 3.8951799397595117 19.55145950275429 35.71762177288347 1 0 0
5685 33 1 0.7646858610912813 21.664797878818884 37.53405816389257 1 0 1
7503 59 1 3.56465221410666 17.412377643633096 29.607486733574277 0 0 0
1140 11 1 7.914938572301822 14.15301581747462 28.392167361636588 0 0 0
8300 64 1 11.666495836923088 25.781238308719306 39.65734054869805 0 0 0
7054 55 1 4.60315653212575 12.007011912443026 30.303131668952783 0 0 0
479 9 1 15.359945796356778 10.528622619207184 39.873956877915646 0 0 0
690 9 1 5.797876153696618 10.255792821844734 26.407261564897 0 0 0
926 11 1 15.065077075946462 14.259521603188142 38.90313963369451 0 0 0
476 9 1 13.27192581790873 9.61660263122209 36.7631984966011 0 0 0
7509 59 1 8.229562433003665 17.58786695436944 35.726036344640775 0 0 0
7061 55 1 9.70361474251138 13.124006463976897 37.57226559145698 0 0 0
10 1 1 6.102580985194609 1.7532465407838111 24.99026047051047 0 0 0
1446 14 1 7.456234603040315 18.964764621031023 28.670800888017077 0 0 0
148 2 1 12.557368095526291 3.839918324676987 28.66070922000426 0 0 0
22 1 1 14.3406786093055 1.6358283846574486 37.557853934001585 0 0 0
454 5 1 18.29555853488107 7.196682152479807 36.407939367578734 0 0 0
8023 63 1 11.234440408141772 22.170109446647803 40.32872763892077 0 0 0
2142 24 1 15.242889848304355 6.271906493862378 25.37554448146595 0 0 0
7284 3 1 3.8087276307373945 14.793201254680664 36.74371345198932 0 0 0