LAMMPS data file via write_data, version 23 Jun 2022, timestep = 11112117

8487 atoms
2 atom types
8471 bonds
3 bond types
8455 angles
3 angle types
8439 dihedrals
3 dihedral types

0 36.89775039 xlo xhi
0 26.67072 ylo yhi
38.78184147945956 197.969762920549 zlo zhi
0 5.008398622725942 0 xy xz yz

Masses

1 14
2 15

Pair Coeffs # lj/cut/omp

1 0.0914 3.95
2 0.1947 3.75

Bond Coeffs # harmonic/omp

1 449.5 1.53
2 449.5 1.53
3 449.5 1.53

Angle Coeffs # harmonic/omp

1 62.0967 114
2 62.0967 114
3 62.0967 114

Dihedral Coeffs # opls/omp

1 1.411 -0.271 3.145 0
2 1.411 -0.271 3.145 0
3 1.411 -0.271 3.145 0

Atoms # molecular

1 49 1 12.576704799602313 1.3647978958380262 50.95201447301456 0 0 0
2 49 1 13.640925886163576 2.228366770840994 51.6329035519919 0 0 0
3 49 1 14.41970674750335 1.2073352785461418 52.453789590866606 0 0 0
4 49 1 15.290891800759008 1.9565120713318118 53.473504690959984 0 0 0
952 45 1 0.537088388878507 15.242745162798915 39.49650781706963 0 0 0
2339 17 1 10.539513401862783 2.077408368569344 40.43007793442503 0 0 0
741 5 1 5.837779726830144 7.517959118273196 39.85559579646139 0 0 1
1217 11 1 10.541034925661997 17.480009855650785 44.00099000213791 0 0 0
7754 60 1 0.36203260682027893 18.862733388895496 48.268122874455685 1 0 0
953 45 1 1.4865389116280268 14.49051109959016 40.39661580733072 0 0 0
2121 17 1 16.218780158355383 2.179961191436229 45.3385464203545 0 0 0
3236 22 1 16.49854480656973 12.693927258500135 40.70175222555379 0 0 0
6824 33 1 1.503193513767752 5.846807849644742 49.50356329345439 1 0 0
1443 32 1 0.8720572829430676 19.371349586353066 39.32254741273307 0 0 0
6941 38 1 7.868946216485235 7.890304309328398 51.50717709827226 0 0 0
218 49 1 6.541095959669352 1.4840902890047984 44.625521013007116 0 0 0
3868 29 1 17.98514509846097 20.988561887198454 42.763389976407815 0 0 0
219 49 1 7.526173362590213 0.7008420531787157 45.25538954940365 0 0 0
220 49 1 7.764395624393857 1.5625502001822864 46.56605168799658 0 0 0
221 49 1 8.982014310983569 0.9826212294341105 47.270932656114255 0 0 0
222 49 1 9.83370597866957 1.7776750306473448 48.251312830153694 0 0 0
223 49 1 10.78384285732011 1.1506710340448505 49.245111284313374 0 0 0
224 49 1 11.725611946724264 2.0936108186237092 49.98665884508692 0 0 0
4093 17 1 17.02752222294451 23.699012049530886 46.270126167206215 0 0 0
2115 20 1 6.00862497138017 25.059171895103088 39.28564334255673 0 0 0
276 3 1 10.956724116627761 3.61844556001617 44.849105902550306 0 0 0
5552 63 1 2.0836763100377467 16.49833565089387 54.108895727610175 0 0 0
511 2 1 3.4918651507702227 5.418332962606682 42.40984027062064 1 0 1
7527 6 1 2.5961400794125993 17.034270932143173 44.930906719285375 1 0 0
743 6 1 7.660332966803131 7.416904377410483 41.49507959713067 0 0 0
3304 22 1 15.203410935211076 13.347408153436113 40.12470788523036 0 0 0
1212 12 1 6.023298364794432 16.165658659192587 39.81811131264262 0 0 1
8459 53 1 10.307775849035611 25.577613886483693 53.339777623112205 0 0 0
7084 7 1 2.74493103092186 12.098568594680922 46.07276284867199 0 0 0
1901 20 1 14.90273840492135 25.988184618984775 48.01230913507972 0 0 0
279 3 1 13.842009614797865 4.585360813897969 47.40047448677565 0 0 0
890 9 1 14.213500850478486 12.874767466473504 48.04827403049805 0 0 0
1882 50 1 6.387500325998317 23.750897811168198 44.025510235838695 0 0 1
1215 11 1 8.668253729051184 17.28909619239846 42.33125677113437 0 0 0
3341 23 1 14.482240868812424 12.457848458217319 39.08694863926709 0 0 1
891 9 1 14.891553733181047 11.79692543138671 48.84249285006001 0 0 0
299 24 1 14.265321958973297 5.3772968550949125 52.745420034200315 0 0 0
278 3 1 12.875189479153578 3.6366794037680927 46.69339348411525 0 0 0
5551 63 1 1.093461396490946 17.362057522399155 53.37108821088867 1 0 0
3013 14 1 15.66498848337022 9.8746657342781 44.474166252695774 0 0 0
954 45 1 2.3545248367237366 15.475180411344542 41.26192664424423 0 0 0
742 6 1 6.604233833237573 8.224711530989541 40.94091399361124 0 0 0
1881 50 1 5.455508007157407 22.889678087525148 43.19293777009353 0 0 1
1230 32 1 10.956841394899401 18.780037927715348 48.60545498128879 0 0 0
7529 6 1 4.061754359820223 16.94296833936482 46.80864386229391 0 0 0
3794 27 1 16.489749985137585 19.64277946115538 45.52589047117998 0 0 0
1449 9 1 18.118038389805584 20.70533010102795 52.30671751720736 0 0 0
3865 29 1 15.517576194396186 22.143808318296855 39.938706055187616 0 0 0
514 2 1 6.25077332254169 6.61424329121106 44.79669498611016 0 0 1
529 6 1 16.78187912747582 7.693128474481302 50.24645339990066 0 0 0
509 2 1 2.1882951816026917 5.322695566043021 40.32494901443595 1 0 1
1000 11 1 16.495899418904436 16.457793554504438 50.45560657360112 0 0 0
512 2 1 4.565139878258442 6.353100577393622 42.97492799268282 0 0 1
517 24 1 8.946769334977372 5.762428882025918 47.56981284693176 0 0 0
518 24 1 9.704780539916978 6.56183874197603 48.6592619046657 0 0 0
519 24 1 10.496528591991607 5.634084957105876 49.3908905827425 0 0 0
520 24 1 11.663440793134127 6.255558108035925 50.05621190456593 0 0 0
521 24 1 12.432743231868859 5.4112699490450265 51.06546967111554 0 0 0
522 24 1 13.56967776855193 6.183634144175557 51.67708942809254 0 0 0
523 6 1 11.357289671095646 7.779383211912497 44.922261392657234 0 0 0
524 6 1 12.305006897475549 8.708535099261992 45.638280841142674 0 0 0
525 6 1 13.279581773398643 7.930731806574295 46.44038827912865 0 0 0
526 6 1 13.990354622416188 8.665428043792858 47.5698475951345 0 0 0
527 6 1 14.730260663390109 7.749499255261507 48.60159306831459 0 0 0
283 3 1 17.52792977104155 4.356838755016752 50.93276459542026 0 0 0
216 1 1 4.741690113456553 1.5347188655841302 42.71312757431782 0 0 1
3796 27 1 18.291407761354243 19.516912147526757 47.14053981005793 0 0 0
6784 35 1 3.9572837677810786 3.514412617492511 47.19291959890952 0 0 0
893 9 1 16.94965015247484 11.71500452765608 50.46529164073211 0 0 0
516 24 1 7.990813092331092 6.533659137528222 46.651026931073446 0 0 0
918 9 1 6.261302247932765 11.92940827827927 40.02044620685537 0 0 0
3231 47 1 10.040256649315255 9.819940986926065 39.7299666206631 0 0 1
510 2 1 2.622129663634239 6.236838087712837 41.464748540948136 1 0 1
513 2 1 5.281643577857901 5.662447537521014 44.09075471950043 0 0 1
1879 50 1 3.4759307880966746 22.90234826211603 41.58696777125983 1 0 1
7313 58 1 4.708879411528689 14.31855163035397 51.84852618806103 0 0 0
1663 9 1 9.408922654192876 20.93067968006218 43.31034476108611 0 0 0
747 7 1 8.028348730349293 10.539178419865806 46.455855792466046 0 0 0
748 7 1 9.005089016083138 9.883000584208707 47.324230553258296 0 0 0
749 7 1 10.11428558607026 10.75535931738364 48.109398649965286 0 0 0
750 7 1 11.095824487095037 9.87193810929003 48.940611661316 0 0 0
751 7 1 11.690606339811913 10.733199482942105 50.13115072642371 0 0 0
752 7 1 12.707204487860531 9.849559270939633 50.78326566291132 0 0 0
753 7 1 13.437285031469225 10.509258443707212 51.85079751660527 0 0 0
3825 27 1 11.390670622216529 19.484080864305543 39.96151567349787 0 0 0
920 9 1 8.143489283252523 11.868124386818659 41.8185913182431 0 0 0
1902 20 1 15.433773692170282 26.494005135026477 49.37110761387901 0 0 0
6002 4 1 1.1520770740237827 21.538566220251937 53.16615103261156 0 0 0
531 6 1 18.258529880410766 7.713187338784613 52.26558679402808 0 0 0
6785 35 1 4.783494657926747 2.6274305729964573 48.006878121810956 0 0 0
273 3 1 8.053739387351458 4.057917380351647 42.625790033269965 0 0 0
779 7 1 3.490624098602998 9.843196229446049 42.03798349890437 0 0 0
7309 58 1 0.8151198633722503 14.24543674641871 48.49999275842286 0 0 0
3015 14 1 17.55432264836161 10.143267274051308 46.00721677080307 0 0 0
1660 12 1 7.34890687512152 21.169971024748417 39.990555835354954 0 0 1
1233 32 1 13.625431581145143 19.28907672146132 51.39773583001743 0 0 0
6939 38 1 6.363927806738492 7.942375339537623 49.60685363000376 0 0 0
781 7 1 5.36443769049064 9.90643684280829 43.864250347915686 0 0 0
782 7 1 6.09718139822682 10.629815748012412 44.982470152367725 0 0 0
783 7 1 7.122734572385082 9.713326801994292 45.61552000670072 0 0 0
885 9 1 9.968962485803779 11.933830778512911 43.521542009510355 0 0 0
886 9 1 11.023317474594768 12.730011935588497 44.163422697088365 0 0 0
887 9 1 11.767737975387611 11.990243053324537 45.2956528348132 0 0 0
888 9 1 12.708494069241935 12.948155848505827 45.90770645324621 0 0 0
889 9 1 13.329639675377301 12.099012591167758 47.02296348629832 0 0 0
3866 29 1 16.398768445961526 21.26740342956975 40.9237558747305 0 0 0
2343 43 1 15.18772575515697 4.309151887746138 39.80953628439863 0 0 0
7311 58 1 2.742266818552837 14.288970960059373 50.23401349670322 0 0 0
1669 15 1 15.782415387438427 23.128988112522578 54.06206109116992 0 0 0
1661 12 1 7.7918215485519 20.704367340863556 41.427827105458206 0 0 1
3787 25 1 17.19489924671974 17.70327994937082 41.31835167838657 0 0 1
4123 17 1 11.459506945039404 24.160557385531067 39.76164155802582 0 0 0
1884 50 1 8.199893477412806 23.493232043693443 45.810347319611054 0 0 1
7982 62 1 2.9140660655740236 21.424308506863262 45.39509663260313 0 0 0
3238 22 1 18.43554249821569 12.63889608676001 42.01261400436774 0 0 0
3011 15 1 15.147615570890597 8.437932219643749 39.800973553122915 0 0 0
3232 47 1 11.160856762288292 10.781305004887683 40.146423700169365 0 0 1
921 9 1 9.116963925526353 12.817813700195176 42.58685514892124 0 0 0
922 45 1 7.175212441255289 14.24400292937633 45.21526386577207 0 0 0
923 45 1 8.500404631655334 14.688459458534535 45.84840554126229 0 0 0
924 45 1 8.935195964396163 14.180933158640418 47.19953794481917 0 0 0
925 45 1 9.848116739034493 15.288008045171194 47.76715381374618 0 0 0
926 45 1 10.594082237849667 14.507653962176793 48.89159619658208 0 0 0
927 45 1 11.860049829462962 15.124319134680205 49.52164591551808 0 0 0
928 45 1 12.195862309969778 14.367108936784629 50.764199353424985 0 0 0
929 45 1 13.399428413206122 15.007111566969497 51.44577998927739 0 0 0
6781 35 1 1.268094528241255 2.824173626266645 44.49857116579828 1 0 0
1876 50 1 0.8264578759008022 23.798006819911404 38.83659341952969 1 0 1
4474 33 1 1.0380694716004855 3.8892988774982142 53.01562125237058 1 0 0
6311 62 1 2.230747225315925 25.596131824019295 53.8666171785292 1 0 0
4094 17 1 18.51261762571514 24.07571185142362 46.691116162485294 0 0 0
8210 63 1 3.073185683094845 23.93805683180376 51.049242141178674 0 0 0
1213 12 1 6.993194318185494 17.12044929685026 40.47319769235921 0 0 1
6791 35 1 10.520147016284039 3.0448524991351587 53.187242574813894 0 0 0
7087 7 1 5.810681451200005 12.91355281466984 48.19680710697327 0 0 0
917 9 1 5.070012989699174 12.82182266006715 39.59822967583567 0 0 0
4929 37 1 1.988541379416151 7.652774841281612 54.31447146128392 0 0 0
955 45 1 3.129767925845013 14.553853159890451 42.26077193861456 0 0 0
956 45 1 4.367684204256689 15.321600749490642 42.662825926024084 0 0 0
957 45 1 5.288066454927109 14.617337701852387 43.671550545157785 0 0 0
958 45 1 6.406002299667713 15.271402005812725 44.4508909525261 0 0 0
996 11 1 13.283252738105675 16.79985455984949 46.63094989439392 0 0 0
997 11 1 14.063580949324075 17.695978696392938 47.65345628893135 0 0 0
998 11 1 14.842491018572847 16.754520892547756 48.619529616504806 0 0 0
999 11 1 15.845225514885808 17.40513755753428 49.513739080899065 0 0 0
3012 14 1 14.767172912768872 10.707401228697538 43.7056423477835 0 0 0
7082 7 1 0.870152547449576 12.196678992970044 44.41344849397865 0 0 0
778 7 1 2.5013485837209903 10.698072260941608 41.42520596818459 0 0 0
755 7 1 15.098184693358442 10.542454336849914 53.56947086095373 0 0 0
1446 9 1 15.862289973116509 21.821925950743235 49.32584762999867 0 0 0
3795 27 1 17.154006255635476 18.726347000157713 46.58100626316832 0 0 0
7083 7 1 2.04295481007996 12.9553735394682 45.02388790242167 0 0 0
4091 17 1 15.103856028630895 23.89221883506457 44.87369981394749 0 0 0
6976 56 1 3.2712757795362495 10.698162353886216 51.41968562871969 0 0 0
4122 17 1 10.268825559082233 23.431465709414137 39.16357189376304 0 0 0
932 45 1 15.595293370465843 14.244469535764932 54.3423973506363 0 0 0
7759 60 1 5.325865007510449 19.24369688184907 52.049570863076966 0 0 0
1218 11 1 11.26702812486157 16.817834130359184 45.15618525471997 0 0 0
1219 11 1 12.324411238126645 17.62260042864232 45.77986756482654 0 0 0
1220 32 1 1.7856016530899534 18.618841452186466 40.28528835063206 0 0 0
1221 32 1 2.7850027221173894 19.509243847718828 41.0619287636231 0 0 0
1222 32 1 3.681996051604454 18.759836576799753 42.07354299677418 0 0 0
1223 32 1 4.8116435006690095 19.6118057768356 42.619583369103346 0 0 0
1224 32 1 5.527635410835714 18.820435214187192 43.73525846186077 0 0 0
1225 32 1 6.2505959646414375 19.73449429131795 44.66995414151893 0 0 0
1226 32 1 7.075639336902979 18.841095341677445 45.54562597422131 0 0 0
1227 32 1 8.073255605398082 19.715941230222818 46.344506189387985 0 0 0
1228 32 1 8.896904755844812 18.771969613375685 47.232984138166145 0 0 0
2122 17 1 17.132562745569558 1.2380274836986052 46.002096625188365 0 0 0
1892 20 1 7.004188768826617 25.83399039344437 40.229632290579204 0 0 0
780 7 1 4.299043851923899 10.615134244920212 43.125919076057805 0 0 0
6537 53 1 4.321259879461414 0.7414490854793458 51.49303556437075 0 0 0
7983 62 1 3.6071351020863673 22.154883685558634 46.49158905454784 0 0 0
6310 62 1 1.0157011664561206 26.2600380549403 53.261703321272435 1 0 0
2574 18 1 18.31696174708423 6.563293228665777 47.08699057692273 0 0 0
2567 18 1 11.43012971521701 5.961090883115207 41.396446546706514 0 0 0
1880 50 1 4.115979193045221 23.62300153104364 42.74809765581246 1 0 1
274 3 1 9.157354578414335 3.3627152944200076 43.40439192359995 0 0 0
1234 32 1 14.290784230441071 18.56367631830055 52.586094468674915 0 0 0
744 6 1 8.27033655438906 8.163872844458584 42.70010714335073 0 0 0
5099 40 1 1.07802576495436 13.153267762551595 53.39921662061674 1 0 0
2346 43 1 17.980110006466834 3.406563330758383 42.101922010118955 0 0 0
1444 9 1 14.068688161249678 22.205547068266437 47.59536934446311 0 0 0
1445 9 1 14.734661360433776 21.245650726800495 48.5485035671981 0 0 0
4124 17 1 11.854409203114875 23.438571148939698 41.05771456629559 0 0 0
6975 56 1 2.2115190179571065 10.024102749124832 50.57949254563104 0 0 0
214 1 1 2.710503845903006 1.5033723999003277 41.24087925822544 0 0 1
2344 43 1 16.432700533126862 3.5337137503479625 40.22114785057394 0 0 0
212 1 1 1.16493094830615 1.603747334543431 39.53304605023304 1 0 1
6826 33 1 3.4118829000326247 5.779316900609524 51.07614705669255 0 0 0
745 6 1 9.603586726989834 7.6510371003312745 43.23613048605107 0 0 0
8451 53 1 3.159208055089497 25.27356367600889 46.24021070706663 1 0 0
3014 14 1 16.5928315728707 10.909252678413704 45.19772292667591 0 0 0
7756 60 1 2.261652062079934 18.755638954048685 49.966635848926806 1 0 0
215 1 1 3.8245220512790703 0.6552458089230818 41.95409130522345 0 0 1
2570 18 1 14.786291594603815 6.184673552825915 43.4168405983401 0 0 0
6933 38 1 1.2533222281972298 7.774226430758769 44.526131582828235 0 0 0
2568 18 1 12.815896826652054 6.341183041150634 41.61166750490622 0 0 0
1666 9 1 12.111242717780675 22.160327197561298 45.801117164062624 0 0 0
1667 9 1 13.09598675915737 21.5387824516366 46.71947558687982 0 0 0
7090 7 1 8.341992168139736 12.302245253084545 51.11052610317495 0 0 0
277 3 1 11.930457534777489 4.384810928691065 45.776421086801676 0 0 0
1664 9 1 10.387610188195977 21.95866168042221 43.885920471446084 0 0 0
1447 9 1 16.631530616205627 20.957581158477314 50.25482365405905 0 0 0
7531 6 1 6.012917287706595 17.10613121171335 48.28575576303356 0 0 0
6978 56 1 5.361815613996802 10.803309734410222 53.01527108992574 0 0 0
2342 43 1 14.213004568826719 3.607131015705516 38.86152343832836 0 0 0
3349 26 1 16.612491370220432 15.132151361884638 46.05532506787026 0 0 0
6979 56 1 6.288595604420708 9.983497022255182 53.86460849116112 0 0 0
6539 53 1 6.246123362602425 0.884361795685276 53.1769412725331 0 0 0
8209 63 1 2.454459273557692 22.93462849787153 50.009438412100806 0 0 0
8419 64 1 1.2849152374461579 25.47473260667314 44.376402636636726 1 0 1
275 3 1 9.825317058515907 4.368706095023543 44.2418114538095 0 0 0
2565 18 1 9.793821124265792 5.6855433660557155 39.539837593390274 0 0 0
3346 26 1 13.740979382801694 14.77877372700766 43.379509634836865 0 0 0
2114 20 1 4.924632756441861 26.047871515411906 38.84303253464185 0 0 0
1903 20 1 16.579423378602012 25.687682301213957 49.99919491229076 0 0 0
1886 15 1 9.930814930427031 23.613709075575382 47.56078820642004 0 0 0
1887 15 1 10.424245130161376 23.110327953805744 48.793471704939876 0 0 0
1888 15 1 11.513903528248377 24.040262277943818 49.36471222419708 0 0 0
270 3 1 5.828423162243308 3.017920680397901 39.72748792706185 0 0 0
271 3 1 6.556095405362869 4.0247274780758495 40.63314765633524 0 0 0
7760 60 1 5.906330361514998 18.42331511142947 53.19758955143122 0 0 0
2790 15 1 18.153934549647612 7.491970761059798 42.09931633354856 0 0 0
1893 20 1 8.008286980859278 25.078778093734186 41.0389201645372 0 0 0
1894 20 1 8.62502147448412 26.099455837762612 41.96094071551424 0 0 0
1895 20 1 9.638076123788291 25.348126316013236 42.780246192270376 0 0 0
1896 20 1 10.296977798503233 26.23892857416658 43.875276886142736 0 0 0
1897 20 1 11.24686747520296 25.41770662654824 44.84098146446401 0 0 0
1898 20 1 11.978969780952594 26.626543577045954 45.55402714223518 0 0 0
1899 20 1 12.86471465544166 26.030810967592682 46.57051572912316 0 0 0
269 3 1 4.889863893643221 3.813906097033146 38.89327296567954 0 0 0
2345 43 1 16.951034603369177 4.256963669914254 41.446814077771826 0 0 0
1905 20 1 18.236444047233793 25.633058040143805 51.95710570463304 0 0 0
272 3 1 7.4893821025825 3.1758455090264053 41.45469783786518 0 0 0
3237 22 1 17.2012068427412 13.44294199956336 41.7512936366616 0 0 0
6938 38 1 5.3122384437093535 8.740919134989653 48.96485415695994 0 0 0
1900 20 1 13.784207684402977 0.2339648651226394 47.34283838217762 0 1 0
6940 38 1 7.3032257165161445 8.775046890076343 50.46836687971076 0 0 0
1002 11 1 18.383329498143954 16.46559647124921 52.0969267367022 0 0 0
7990 62 1 9.949999439622863 20.770939201953894 52.58492729215215 0 0 0
1235 32 1 15.03804928543469 19.65595495323285 53.41998991575949 0 0 0
2117 17 1 12.501609483013963 2.5204740197342046 41.82571533605611 0 0 0
8455 53 1 6.648024356192797 25.499431953093723 49.925827865198485 0 0 0
7526 6 1 1.2997975600593654 16.59571183253105 44.38293823616273 1 0 0
3785 25 1 15.497124585070837 17.81469138994269 39.419857477863644 0 0 1
8212 63 1 5.004249028686012 24.34943672294527 52.83435190066439 0 0 0
1877 50 1 1.7795497972896825 22.902512863464683 39.552105508399436 1 0 1
3234 14 1 13.011631160790014 10.701466154662187 41.783162379722306 0 0 0
8420 64 1 2.509507906356464 26.001141959610365 45.100459710950076 1 0 1
7092 7 1 9.860642135229655 11.964283782176722 52.985684605941415 0 0 0
740 5 1 4.766411027414594 8.263252295080623 39.10328875101152 0 0 1
7534 6 1 8.637311178255016 16.531574627015598 50.79421175459788 0 0 0
3342 26 1 10.089009025715493 14.193265484547842 39.86017517057501 0 0 0
7537 6 1 11.074100268236894 17.213932247213634 53.48728357982228 0 0 0
3348 26 1 15.661494895927717 14.581035994183537 45.089121003850984 0 0 0
2566 18 1 10.954087582619973 6.519770709120501 40.040464324229745 0 0 0
2789 15 1 17.177477402116548 8.351825806514224 41.43185796612597 0 0 0
1668 15 1 15.33863546456368 23.918212041827132 52.85352105744437 0 0 0
6932 38 1 0.6597266001977311 8.269377395123067 43.14802682612274 0 0 0
8452 53 1 4.409592553331627 25.949911971239626 46.7462624232345 1 0 0
300 24 1 15.137095482769945 6.241640319342271 53.69633482101515 0 0 0
530 6 1 17.627938776947317 8.611051279401575 51.15999211931381 0 0 0
1885 15 1 8.715155800748667 22.951410257219447 47.12580078624197 0 0 0
7988 62 1 8.26292802626286 21.053789755709335 50.55426419190929 0 0 0
8460 53 1 11.303279626431813 26.432209386846253 54.14275554303678 0 0 0
7980 62 1 0.9467926820162813 21.18364428056947 43.80298661416025 0 0 0
7086 7 1 4.448425545875729 12.239693143121492 47.972862817339816 0 0 0
1890 15 1 13.283356984483412 24.172597196336227 51.32556102945186 0 0 0
7758 60 1 3.9459451402872383 18.725616731650362 51.570438918201056 0 0 0
892 9 1 16.05486240109953 12.481832769824633 49.49744216071877 0 0 0
820 8 1 0.6560451473240012 10.656280382523594 39.56862611826807 0 0 1
3792 27 1 14.773740368151085 19.7144555214511 43.61632175269144 0 0 0
515 2 1 6.9892772495559825 5.79096391394234 45.881826653234164 0 0 1
930 45 1 13.867308973590433 14.442857388644105 52.69418938918281 0 0 0
4092 17 1 16.408358225680864 24.433899094452027 45.14636393241056 0 0 0
7761 60 1 6.838910204281018 19.400426606750553 53.971792225544014 0 0 0
6789 35 1 8.704615623402725 3.1999121055472246 51.41155216530285 0 0 0
3235 14 1 13.802754556343313 9.974689334471883 42.76415077789651 0 0 0
6974 56 1 1.6310869354548325 10.896988393380942 49.56641780239839 0 0 0
7989 62 1 9.144002423335422 21.626805206983523 51.61679287493637 0 0 0
5 49 1 15.969403120908943 0.9277619192725162 54.23933591016165 0 0 0
919 9 1 6.881310037618407 12.551505004414635 41.317698772143956 0 0 0
6538 53 1 4.972275579171274 1.5805066943094983 52.57751610759573 0 0 0
280 3 1 14.436192330253096 3.6043350000949594 48.44078921574813 0 0 0
3344 26 1 11.869861864159224 14.521911110499207 41.63828561365763 0 0 0
1216 11 1 9.62091455304613 16.544669494955176 43.25456663538545 0 0 0
1662 12 1 8.893178617424855 21.54891542020049 41.9968926139595 0 0 1
1904 20 1 17.239561355759076 26.468678947341786 51.075398516120785 0 0 0
8458 53 1 9.413177278875006 26.29266839660748 52.32704031488866 0 0 0
2116 17 1 11.882603316021747 1.6299785984526582 40.838810538047625 0 0 0
7089 7 1 7.333232925485548 13.191141233263227 50.2532814317176 0 0 0
6977 56 1 4.172496744058158 9.966186562417068 52.35863082099315 0 0 0
1665 9 1 11.47655324681216 21.284409503366486 44.704829477051554 0 0 0
894 9 1 17.600309915466497 12.721497043532516 51.34483539088923 0 0 0
1878 50 1 2.4960799407637215 23.647805538191907 40.78813991552905 1 0 1
1891 15 1 14.112175315496627 23.296129977439165 52.29001724221496 0 0 0
3790 27 1 13.148938862776701 19.698179688347555 41.790614655422615 0 0 0
3791 27 1 13.751075650679752 18.84977865904564 42.895817840666226 0 0 0
3786 25 1 16.17278163596812 16.968596229279736 40.493922833627956 0 0 1
2572 18 1 16.4938660271397 6.45339961236305 45.181992739242325 0 0 0
1232 32 1 12.520769915587554 18.557086559221688 50.548787140922954 0 0 0
7530 6 1 4.730162568754257 16.345686254204416 47.98259648701044 0 0 0
284 3 1 18.19623352868121 3.5152597397050394 51.936566860360585 0 0 0
3350 26 1 17.603723853581045 14.119647246980112 46.59761972356178 0 0 0
2573 18 1 17.25293748535815 5.680078547484889 46.261527667744154 0 0 0
3826 27 1 11.91060056568248 18.97954765444977 41.266832570010095 0 0 0
1214 12 1 7.809014861312206 16.413870512987007 41.52369862148275 0 0 1
6944 38 1 10.995409395659529 8.470029506568727 53.66736308917214 0 0 0
7528 6 1 3.1741223981629405 16.100877605444207 45.88462171165473 1 0 0
3347 26 1 14.95384480828856 15.391144141453523 44.063605905364476 0 0 0
4088 17 1 13.271125713857035 23.910717429149205 41.60719421069807 0 0 0
4089 17 1 13.91228251480807 23.32066118059145 42.873609576394884 0 0 0
7981 62 1 1.6926401323758853 22.047875748482966 44.84092717261414 0 0 0
6783 35 1 3.071571539500614 2.781195052836287 46.240676782175754 0 0 0
6935 38 1 2.704999804089292 7.83398947472054 46.52528124296644 0 0 0
3345 26 1 13.143897751018917 15.339221751304114 42.11645705726596 0 0 0
6934 38 1 2.083251289763702 8.755059693522258 45.42688822840392 0 0 0
777 7 1 1.9823556622811183 10.052951220188788 40.15618128166847 0 0 0
4168 30 1 18.306389273725266 25.565808825545474 42.20713040129982 0 0 0
7755 60 1 1.7215730788888446 19.40300180682548 48.71470107803172 1 0 0
4165 30 1 15.543000672585302 26.460575684077575 39.77891069163566 0 0 0
895 9 1 18.607616018936355 12.090971288738873 52.25775763612836 0 0 0
4090 17 1 14.701839214030295 24.399608237330728 43.5419840474422 0 0 0
8418 64 1 0.6708207101578301 26.201376818571795 43.21191049145195 1 0 1
2123 17 1 17.87399917089154 1.9892604751906662 47.097401900847544 0 0 0
1659 12 1 5.873926412898456 20.69256399959618 39.70968406086836 0 0 1
1889 15 1 12.246857129545539 23.383255513567573 50.5126145304397 0 0 0
7986 62 1 6.0980885851836275 21.13429766808801 49.06584744694027 0 0 0
6823 33 1 0.6917263686906208 5.3994747844619955 48.22872710680806 1 0 0
1229 32 1 9.966372805078768 19.545292847988915 47.85601551757438 0 0 0
1883 50 1 6.858285873718157 23.157855137522407 45.30357526648175 0 0 1
217 1 1 5.550184133261818 0.7003721443206701 43.68868465089136 0 0 1
7987 62 1 7.183341858617731 21.896510686092682 49.888474049122955 0 0 0
8457 53 1 8.584004139147252 25.300555131246618 51.54698567225547 0 0 0
1231 32 1 11.512938382565297 19.41711197122968 49.83206582790635 0 0 0
4928 37 1 0.8614800757931178 8.35274527355122 53.647452401013446 0 0 0
3343 26 1 11.327908633600272 14.991235542096607 40.26922117627004 0 0 0
2571 18 1 15.457401757388148 5.549534001748693 44.62113374611193 0 0 0
6782 35 1 2.2273960454543738 3.7052902062980886 45.39391192067502 1 0 0
2788 15 1 16.249127984650954 7.538050460652651 40.44431097549046 0 0 0
7533 6 1 7.573989905936281 17.30796148996254 50.052951703823766 0 0 0
2119 17 1 14.67530825983052 2.4498827295950583 43.33295955995475 0 0 0
6942 38 1 9.017509788322672 8.540163567548738 52.255640714546786 0 0 0
6003 4 1 2.093934341345077 20.733850020495325 53.985598287105 0 0 0
754 7 1 14.53697407437897 9.646179609264223 52.432368184948345 0 0 0
7532 6 1 6.941364781641817 16.28077284289529 49.13594188772982 0 0 0
2338 17 1 10.314128565890464 1.701872551511134 38.95771731422369 0 0 0
528 6 1 16.15111455693227 8.248086782373678 48.92281961565652 0 0 0
8456 53 1 7.996146358064252 26.041687842109077 50.40052852691181 0 0 0
7085 7 1 3.9035136003053474 12.727139372657312 46.65052985797684 0 0 0
7312 58 1 3.6804711552840135 15.151685968222624 51.10394362721885 0 0 0
1448 9 1 17.744910225265507 21.608772838119243 51.089776509582386 0 0 0
7310 58 1 1.75636656392738 15.084090710382466 49.353895795595214 0 0 0
7093 7 1 10.888154486664417 12.742421318377815 53.756494975796116 0 0 0
6828 33 1 5.193068780815884 6.122864265165614 52.92332021323435 0 0 0
213 1 1 2.234566666411817 0.721844978999931 40.051923675105776 1 0 1
3793 27 1 15.388946291679066 18.922339584923296 44.72279311218683 0 0 0
6535 53 1 2.5757839963093687 0.5389585550052216 49.97576316454669 0 0 0
3016 14 1 18.59909536953435 10.77856330354125 46.833829255137 0 0 0
8453 53 1 4.796340198005149 25.345168864170795 48.0549575064801 1 0 0
6943 38 1 9.794800052260616 7.649711962509243 53.23725390740994 0 0 0
7991 62 1 10.584004737929263 21.638579017061584 53.68376466355868 0 0 0
6937 38 1 4.472048433158602 7.7167983982510835 48.22577730283214 0 0 0
3784 25 1 14.293789527323653 16.968109154266696 38.98617855032674 0 0 1
3867 29 1 17.195750836953195 22.0298457364121 41.94219918136707 0 0 0
7985 62 1 5.214294965731917 21.96611099409812 48.263337334216565 0 0 0
7314 58 1 4.981529091481456 14.787548080461706 53.239514592274006 0 0 0
1001 11 1 17.506863332361593 17.28772847196504 51.2488054812119 0 0 0
2120 17 1 15.345247675021131 1.466810008114184 44.27065486055478 0 0 0
6825 33 1 2.583295369729619 4.901318249263665 50.0662670922397 1 0 0
6786 35 1 5.788786646536988 3.6145056147830807 48.72547259736307 0 0 0
6787 35 1 6.800378097921877 2.9412822084313075 49.70886920030068 0 0 0
6788 35 1 7.450986717929229 3.8569920254223384 50.747304095404616 0 0 0
4475 33 1 2.04277195719534 3.197473374441805 53.879967352702444 1 0 0
282 3 1 16.434171104614734 3.597394107207921 50.16014807214223 0 0 0
3233 14 1 11.825231890157083 9.928619991520161 41.20730199812589 0 0 0
2569 18 1 13.425997465417593 5.684775797141099 42.875668941896166 0 0 0
7315 58 1 6.2733354859343065 14.146748007657111 53.722680077100094 0 0 0
4166 30 1 16.46270331401373 25.671320045908207 40.53432528409279 0 0 0
6792 35 1 11.137664025405053 3.8222728168796163 54.35657044964743 0 0 0
7088 7 1 6.617668163776465 12.260579224007417 49.28384580975404 0 0 0
6936 38 1 3.5111867106398815 8.660919263929125 47.541624023991446 0 0 0
2118 17 1 13.517203452154165 1.7186336558125024 42.64321153680127 0 0 0
6536 53 1 3.2381232143763987 1.5197417249089713 50.864134249806966 0 0 0
931 45 1 15.233073887845157 14.905891623423944 53.09895328490995 0 0 0
8213 63 1 6.180930931722139 23.567072532126055 53.44066957702433 0 0 0
7984 62 1 4.480733300895359 21.20790019397109 47.18229510503561 0 0 0
6827 33 1 4.512839846378656 5.200632426769776 51.8514380096083 0 0 0
746 6 1 10.259739806228502 8.577306122678069 44.29090057363916 0 0 0
7757 60 1 3.4812744986534803 19.505523993351623 50.41500540727385 0 0 0
281 3 1 15.581972121740439 4.365923379902478 49.104905353741835 0 0 0
7091 7 1 9.118313727806122 13.013044300757702 52.124864281500756 0 0 0
8454 53 1 6.248895994868388 25.765145583578338 48.36519893531631 1 0 0
4167 30 1 17.425340032156992 26.47532839089966 41.33095682899947 0 0 0
6790 35 1 9.188678688454392 3.731318584199271 52.705188643669025 0 0 0
7536 6 1 9.793800282026055 16.513510951042772 53.21482671962813 0 0 0
8208 63 1 1.3474297775965405 23.663337046754787 49.17852203066914 0 0 0
3351 26 1 18.511334636459075 15.002972577703865 47.34907524627148 0 0 0
7535 6 1 9.357895666372054 17.32875439923489 51.95394941622723 0 0 0
6534 53 1 1.7393034006814412 1.3025769891926475 49.00948171279266 0 0 0
6829 33 1 6.076543157635031 5.188287087005342 53.78920980450575 0 0 0
8211 63 1 4.308692453851978 23.517408715122826 51.81991916134095 0 0 0
6533 53 1 0.8419475201384885 0.6901393886726198 47.96764764307304 0 0 0
756 7 1 16.361723842433147 9.949771632236532 54.30952704773733 0 0 0
8207 63 1 0.5366701019702413 22.703640566294382 48.34138633952335 0 0 0
508 2 1 1.1226031754108514 5.899424326959575 39.367259184270694 1 0 1
5100 40 1 2.2554530046001156 12.474870207633854 54.04485939161093 1 0 0
1236 32 1 15.895838617901658 18.834211968363146 54.41481270685664 0 0 0
6780 35 1 0.43208635075097457 3.8648223594613422 43.687362360204304 1 0 0
3824 27 1 10.345457599015434 18.6849450468494 39.39489077621364 0 0 0