LAMMPS data file via write_data, version 29 Oct 2020, timestep = 34000000

10752 atoms
2 atom types
10752 bonds
3 bond types
10752 angles
3 angle types
10752 dihedrals
3 dihedral types

-0.1340069868625804 31.00192698684723 xlo xhi
-0.11578567083373592 26.786505670803773 ylo yhi
-1.2285859077826444 284.2279459070927 zlo zhi

Masses

1 14
2 15

Pair Coeffs # lj/cut/omp

1 0.0914 3.95
2 0.1947 3.75

Bond Coeffs # harmonic/omp

1 449.5 1.53
2 449.5 1.53
3 449.5 1.53

Angle Coeffs # harmonic/omp

1 62.0967 114
2 62.0967 114
3 62.0967 114

Dihedral Coeffs # opls/omp

1 1.411 -0.271 3.145 0
2 1.411 -0.271 3.145 0
3 1.411 -0.271 3.145 0

Atoms # molecular

230 2 1 5.037238867905405 3.7066483395028245 2.461307259826291 0 0 0
231 2 1 5.756285436838369 4.350488829817079 3.658322692027589 0 0 0
229 2 1 5.7748002134257055 4.082454637126886 1.1606633631742382 0 0 0
2 1 1 2.2209502641892604 1.3909488435167014 0.9380712145590988 0 0 0
232 2 1 5.274053335499665 3.995046383353138 5.025601259805897 0 0 0
4 1 1 2.1130098562700184 1.8485078315372607 3.481448989654499 0 0 0
454 3 1 1.622407641139213 5.8471435096899045 4.799936403330934 0 0 0
452 3 1 1.5171942932055815 5.637569537957176 2.2600420787905806 0 0 0
450 3 1 1.5709157102767566 5.237517265806718 -0.2419435410875026 0 0 0
228 2 1 5.2047399032903146 3.5429885125128555 -0.11339551287837746 0 0 0
453 3 1 2.1953258648442127 6.283250884924505 3.4844213838476508 0 0 0
451 3 1 2.1367863506148512 6.047018516794021 0.941274732939068 0 0 0
5 1 1 1.3058344114272118 1.9213158365339842 4.792193317388726 0 0 0
3 1 1 1.3671826653565666 1.733171763619407 2.1871180915751696 0 0 0
1 1 1 1.328484270656539 1.408589852018491 -0.29897331436644803 0 0 0
233 2 1 5.974064478499265 4.559980803604682 6.241199568696848 0 0 0
2693 13 1 8.747419721926024 2.007609915677708 4.668863970180549 0 0 0
2691 13 1 8.91817647182433 1.9425390569284344 2.094728809453496 0 0 0
2915 14 1 13.123061251060566 3.8089051657923045 1.6785674143273939 0 0 0
2917 14 1 12.987856781542549 3.752772699632345 4.337550803035252 0 0 0
2914 14 1 13.771150650182328 3.1847402331512944 0.4480405532849585 0 0 0
2916 14 1 13.661276913541789 3.2670153593844593 3.04146924259366 0 0 0
2692 13 1 9.312425328531836 1.3044168687070348 3.4551947788365567 0 0 0
2689 13 1 9.08950013537842 2.0077732662474777 -0.44688588780131044 0 0 0
3137 15 1 10.15224040482873 6.0534209163734864 0.8432849301894123 0 0 0
3139 15 1 10.11635349391879 6.315046092699263 3.314674911198244 0 0 0
2690 13 1 9.677659758277374 1.446297491580434 0.8712443025224945 0 0 0
2913 14 1 13.415794031773459 4.0865405577123965 -0.7334171920071482 0 0 0
3360 15 1 9.297837402716777 6.133066365130209 -0.4102991026157029 0 0 1
3138 15 1 9.245642807543456 6.1963821101702115 2.0672558097188323 0 0 0
3140 15 1 9.242579836572743 6.375504415835253 4.599975786851438 0 0 0
2694 13 1 9.433034396050736 1.4159524827075347 5.865779471492889 0 0 0
3141 15 1 9.950572978177727 6.00765287224615 5.942636827840597 0 0 0
2918 14 1 13.80660661274619 3.3991782458025566 5.5855685038052965 0 0 0
676 4 1 5.535415122823959 7.804744904194426 1.930842801526714 0 0 0
674 4 1 5.57787582330771 7.752268039533877 -0.5236790570114013 0 0 0
678 4 1 5.491530132335958 8.167226393273788 4.5231708064989204 0 0 0
677 4 1 6.2035737505446304 8.433344856288233 3.202724797696635 0 0 0
675 4 1 6.236510158450997 8.352833883266674 0.6661654193468096 0 0 0
900 5 1 2.055377014445001 10.633328633710033 0.6209707272821665 0 0 0
902 5 1 2.1095215889509875 10.863698356738446 3.0550564089637495 0 0 0
901 5 1 1.7423021493980795 9.924931266381353 1.916024184051003 0 0 0
903 5 1 1.5263220166238938 10.34783819226768 4.3114514387788505 0 0 0
899 5 1 1.5860503405738506 9.87090072221244 -0.5868247456529994 0 0 0
1126 6 1 5.312834428920814 12.748631682645028 4.276767437304887 0 0 0
1124 6 1 5.436411521244388 12.762993881294268 1.7093113750391211 0 0 0
1122 6 1 5.417188371973235 12.790179798748895 -0.8149043619423866 0 0 0
1123 6 1 6.091353977646217 13.283179665002017 0.4153298323219614 0 0 0
1125 6 1 6.030687279589031 13.202854445379089 3.029045318755472 0 0 0
904 5 1 1.9369148412771633 11.083057223891021 5.574282763848423 0 0 0
3364 16 1 14.006757825131254 7.963080825330223 3.1569452673111886 0 0 0
3362 16 1 13.949225163967363 8.3152387177409 0.46940652031942465 0 0 0
3589 17 1 9.185747056827434 10.792914009676087 4.585393390987238 0 0 0
3365 16 1 13.127560698656756 8.105886666390656 4.397299755710022 0 0 0
3363 16 1 13.235666487702833 8.091042675478098 1.8272861279361963 0 0 0
3587 17 1 9.079343023639945 10.667624582884233 2.0062032638709137 0 0 0
3588 17 1 9.76661352378506 10.246673114849354 3.2805025232849063 0 0 0
3586 17 1 9.667551795466759 10.095210918688863 0.7295741684203179 0 0 0
3810 18 1 13.279526962299885 12.109421389817491 0.6272741419611363 0 0 0
3812 18 1 13.340932214461649 12.154018256359235 3.1665937691682196 0 0 0
3361 16 1 13.244990578927984 8.458388897052966 -0.8858689573078858 0 0 0
3809 18 1 13.756182976610505 12.891938773052466 -0.6066960356659896 0 0 0
3585 17 1 9.089168565457799 10.725870906601664 -0.5210395945956627 0 0 0
3813 18 1 13.180505211428878 13.027844474783313 4.466485258584103 0 0 0
3811 18 1 13.28369980875698 12.94502283772129 1.873590426799181 0 0 0
3590 17 1 10.029529903028013 10.634607478917635 5.847304993330527 0 0 0
3366 16 1 13.898954519386042 7.894904603524381 5.74082468683388 0 0 0
3814 18 1 13.526592689087867 12.309591449287238 5.757581804121548 0 0 0
1347 7 1 1.3341463926593367 14.564928123554914 1.8141932798499223 0 0 0
1345 7 1 1.7727862130668013 14.423503535015534 -0.659976807803627 0 0 0
1349 7 1 1.3304612675913492 14.682259400566565 4.368509174652232 0 0 0
1348 7 1 1.7871183830585828 15.34649931189821 3.048165422144052 0 0 0
1346 7 1 2.098076938122873 15.121166916326752 0.6634150767550488 0 0 0
1570 8 1 5.117924832171994 17.03095934273042 1.991394562558312 0 0 0
1572 8 1 5.148621079092236 17.217043378118838 4.5200181534443455 0 0 0
1571 8 1 5.884409639110563 17.39971681767379 3.208752204020361 0 0 0
1569 8 1 5.905034235882441 17.381932933493417 0.7711376391334039 0 0 0
1795 9 1 1.7036014837987994 19.316859931118607 1.7517125568919463 0 0 0
1792 8 1 5.082363165838588 17.27058984851776 -0.5290434787329271 0 0 1
1797 9 1 1.6911951373701049 19.133158085991056 4.280445551315809 0 0 0
1794 9 1 2.52955744398919 19.549568814366076 0.4905697791332382 0 0 0
1793 9 1 1.6505788026020782 19.246918399458558 -0.730970102782508 0 0 0
1796 9 1 2.438106140926883 19.606541538913866 3.045365171346088 0 0 0
1798 9 1 2.1991338734219585 19.61763330157327 5.641260559391224 0 0 0
1573 8 1 5.963129733476647 17.662148907930288 5.689630638172159 0 0 0
4034 19 1 9.421741567269402 14.50133049422609 0.7517825900378978 0 0 0
4036 19 1 9.625840066152225 14.610169282284923 3.26973966658416 0 0 0
4035 19 1 8.848444442184558 15.027150739095063 1.9946930912789225 0 0 0
4037 19 1 9.085292059132213 15.285382235372339 4.528125231126644 0 0 0
4258 20 1 13.741254763970678 16.69342524361541 0.8760084936898549 0 0 0
4259 20 1 13.391209046145907 17.439829946880558 2.158641692205491 0 0 0
4261 20 1 13.662581357201182 17.603542987977463 4.765733506784029 0 0 0
4260 20 1 13.798945244905685 16.75300171207509 3.4875558860567075 0 0 0
4257 20 1 12.898883797370203 17.12663082177729 -0.3962140577312079 0 0 0
4482 21 1 10.510885798220478 19.650063447726872 1.138018602664741 0 0 0
4484 21 1 10.194781851888047 19.60210026562025 3.664840757318278 0 0 0
4033 19 1 9.212653701333002 15.214191609006683 -0.6088795102242722 0 0 0
4485 21 1 9.30199401522295 19.77376103157186 4.905801012614462 0 0 0
4481 21 1 9.912917639447539 20.026088329645837 -0.21223785223563985 0 0 0
4483 21 1 9.545511388858356 19.961818261447952 2.305170449868602 0 0 0
4486 21 1 10.06999129336515 19.844435910609683 6.219078001727048 0 0 0
4038 19 1 9.829569263954474 14.773428519970961 5.757954459067675 0 0 0
4262 20 1 13.945901372151226 16.829624962045308 6.095354403313689 0 0 0
2469 12 1 5.685661831325162 -0.058794935108998914 3.6320886708507576 0 1 0
2467 12 1 5.986993614959974 26.465491232291207 1.1141060338423854 0 0 0
2468 12 1 5.769905037321068 25.81582434870576 2.5093640257986483 0 0 0
2470 12 1 5.712463343410372 26.108821807185073 4.90080458475649 0 0 0
2020 10 1 5.730386196850289 21.497489392669998 4.936652125519358 0 0 0
2018 10 1 5.646175425530546 21.297144458541375 2.2514905561038585 0 0 0
2245 11 1 1.4636552151307098 23.795252717131426 4.27690443450338 0 0 0
2019 10 1 5.999897848942778 22.118952263368058 3.557501789505415 0 0 0
2244 11 1 2.2979913330896116 24.073290663856632 3.0105804902124245 0 0 0
2242 11 1 2.3273071374575247 23.78446252358684 0.5660135826212656 0 0 0
2017 10 1 6.1982677539600965 21.850255802481755 0.951820459922367 0 0 0
2243 11 1 1.4428577122033237 24.011558863782334 1.7765330717206416 0 0 0
2241 11 1 1.6269924627711323 23.88978156160035 -0.7896957793556607 0 0 0
2466 12 1 5.9462774177174404 25.461177076836663 -0.0745019305670962 0 0 0
2240 10 1 5.668285099924753 21.13690867981937 -0.2704703655051781 0 0 1
2471 12 1 5.698373552561048 0.11732748723527833 6.09613280990698 0 1 0
2021 10 1 5.861283036222377 22.44893963611861 6.139474583586107 0 0 0
4708 22 1 13.748290285873411 21.703931946160253 3.4472866081293168 0 0 0
5157 24 1 13.098783716778287 26.555330826572416 4.288253143945843 0 0 0
5155 24 1 13.357388761907226 26.52412060605284 1.7704657219577182 0 0 0
5153 24 1 13.143255479806058 26.31938045600417 -0.6789553022928141 0 0 0
4706 22 1 13.766435377198185 21.702548107225773 0.9344522307924104 0 0 0
5154 24 1 14.106226833716908 26.095276908868854 0.496158520617642 0 0 0
5156 24 1 13.977892195250934 26.112763127933043 3.1093091348490685 0 0 0
4929 23 1 9.224688252284258 24.13318812061241 1.8991813929481776 0 0 0
4931 23 1 9.074683676918184 24.18674342281936 4.472912982696936 0 0 0
4930 23 1 9.88272881475237 23.76152095832061 3.220971429271371 0 0 0
5152 23 1 10.058887175118132 23.885611598624962 0.6410109306302338 0 0 1
4709 22 1 13.098060163762101 22.00080670064122 4.749497933710849 0 0 0
4707 22 1 13.045517742199653 22.1185942060483 2.204968227797959 0 0 0
4705 22 1 13.217391055914886 22.263081312033307 -0.419154457920613 0 0 0
4710 22 1 14.094190144233648 21.684547405548855 5.853463133605669 0 0 0
5158 24 1 13.80787375937548 26.075335592231504 5.50446398890049 0 0 0
5151 23 1 9.25265985472442 24.136048372265513 -0.57267829196999 0 0 1
6 1 1 2.100861300642713 1.8097655308633624 6.048768019456172 0 0 0
455 3 1 2.1335791349938686 6.4451438837775 6.091631341956973 0 0 0
236 2 1 4.9619815183579234 4.243158253095459 9.977102354372295 0 0 0
234 2 1 5.222555164033198 4.13557235973534 7.492093619316593 0 0 0
235 2 1 5.801447372943972 4.636150631435603 8.763843909547667 0 0 0
237 2 1 5.732775817029292 4.278329057796435 11.308397230102322 0 0 0
10 1 1 1.7220220888664648 1.6044198686569184 11.137692260863636 0 0 0
238 2 1 4.7852233840008855 4.087727780098606 12.474030714294118 0 0 0
458 3 1 1.3827077668301013 5.458140763115842 9.86827163639791 0 0 0
460 3 1 1.4691685886256731 5.387956626451733 12.379104572133599 0 0 0
8 1 1 1.99599837170148 1.5215406910530207 8.661655259600096 0 0 0
456 3 1 1.6150693267056107 5.79396597668416 7.327270010568444 0 0 0
7 1 1 1.2420336451135798 1.4725657352951367 7.267898463453687 0 0 0
9 1 1 1.0179106760752052 1.4045231429752463 9.843951691852476 0 0 0
11 1 1 0.8375737289207837 1.3826098014499397 12.381706758421906 0 0 0
459 3 1 1.7807759221818547 6.170452522071782 11.122690320566075 0 0 0
457 3 1 1.988424081032702 6.326670297363549 8.726180725811417 0 0 0
2921 14 1 13.417709260119095 4.1995495317617095 9.44309593562434 0 0 0
2919 14 1 13.360661567072096 4.091021566734412 6.890060222476377 0 0 0
2923 14 1 13.195698052681271 4.2997439272806215 12.050109352311104 0 0 0
2695 13 1 9.05318875726102 2.0189007002751045 7.1841914668277 0 0 0
2697 13 1 9.253828558683825 2.036342977426789 9.734668182419975 0 0 0
2922 14 1 13.952967276540518 3.767575569340895 10.830579536216781 0 0 0
2920 14 1 14.127414427648752 3.7579250432710136 8.151062995998117 0 0 0
2699 13 1 9.211502968702534 2.159736174731547 12.351712769767296 0 0 0
3145 15 1 9.80579536032861 6.197781491089179 11.032869298192702 0 0 0
2698 13 1 9.75229560208069 1.4597965303134457 11.056782850552407 0 0 0
2696 13 1 9.78922906472239 1.4202044146623904 8.395841551191804 0 0 0
3143 15 1 9.909725464482188 6.263321903463604 8.524910140208856 0 0 0
3144 15 1 9.145789319551092 6.789651417673212 9.812573360539233 0 0 0
3146 15 1 9.358150910084548 6.891260920278383 12.338510117589003 0 0 0
3142 15 1 9.1582861138494 6.45339423872041 7.176436671999609 0 0 0
679 4 1 6.277116275257383 8.513610467281097 5.75036594124841 0 0 0
1127 6 1 5.859116305545699 13.281819714900555 5.578367897861253 0 0 0
680 4 1 5.457978194546074 8.412758502414851 7.03749568584483 0 0 0
682 4 1 5.151882821794084 8.695658010559608 9.46908486153694 0 0 0
684 4 1 5.0765146726995205 8.518553714420218 12.080378227075608 0 0 0
683 4 1 5.863031280049649 8.786970244967437 10.825081131256718 0 0 0
681 4 1 6.134288107300199 8.817308683854547 8.350986008289214 0 0 0
906 5 1 1.7479464748013867 11.166337569437088 8.1894659660506 0 0 0
908 5 1 1.7821011372172437 11.008710716849539 10.708792595234868 0 0 0
907 5 1 1.4955710838704201 10.29395214148933 9.438953179590376 0 0 0
905 5 1 1.3407340244073325 10.50544312860234 6.862528319032629 0 0 0
909 5 1 1.4024868475180137 10.198669915993756 11.968837435531103 0 0 0
1128 6 1 5.050761803171667 12.868997551721142 6.818952459138975 0 0 0
1130 6 1 5.028200151828853 12.786559480846654 9.396874424392832 0 0 0
1132 6 1 5.01923878126742 13.095086756790007 11.802662752635095 0 0 0
1129 6 1 5.756448085028006 13.033249886967585 8.137455642375516 0 0 0
1131 6 1 5.868530476170956 13.18461061214629 10.640534463435124 0 0 0
3370 16 1 14.027988131355237 7.888570865831138 10.784377806512245 0 0 0
3368 16 1 13.873742715438645 7.862281158958714 8.293693016624324 0 0 0
3367 16 1 13.10243465377628 8.168916658786504 7.039373474131333 0 0 0
3369 16 1 13.1487506404012 8.190830368033271 9.575895944802374 0 0 0
3371 16 1 13.201222261469365 8.006497119032186 12.078841442961371 0 0 0
3593 17 1 9.276199319687205 11.01073921518843 9.769930341462965 0 0 0
3591 17 1 9.207952427326628 10.94917468571748 7.111992245016278 0 0 0
3592 17 1 10.012298444607078 10.752552760696322 8.403347949313966 0 0 0
3594 17 1 10.045373004678689 10.588860917996369 11.023018598322496 0 0 0
3818 18 1 13.53381055368679 12.105459573661681 11.045542881583932 0 0 0
3595 17 1 9.230920776669342 10.89451951044446 12.276134216619655 0 0 0
3816 18 1 13.665142710452196 12.187496234439028 8.381264373019446 0 0 0
3815 18 1 13.4738880346296 13.056789816518931 7.068838662583207 0 0 0
3817 18 1 13.56846608323603 12.904802437117528 9.70616762340958 0 0 0
3819 18 1 13.305692883946383 12.961770984886273 12.301003612050971 0 0 0
1350 7 1 1.9163244381616678 15.167912453782247 5.692945179370977 0 0 0
1353 7 1 1.262382192333188 14.887294225909374 9.6329982535779 0 0 0
1355 7 1 1.3175161080812026 14.561632212926327 12.108319637613 0 0 0
1351 7 1 1.2294843372952646 14.767603617335258 7.0421250992800974 0 0 0
1352 7 1 1.9801745538004418 15.225811980305876 8.304505760740183 0 0 0
1354 7 1 1.972371523987884 15.278383188194947 10.911847710531651 0 0 0
1574 8 1 5.106266193680651 17.558237412810037 6.955798459829683 0 0 0
1576 8 1 5.174081258921984 17.549303517672854 9.576334848147363 0 0 0
1575 8 1 5.965277409290449 17.812864763089898 8.273806431729746 0 0 0
1577 8 1 5.95628090135375 17.958679858201783 10.794194107588693 0 0 0
1578 8 1 5.192071524590039 17.60667131838604 12.048710854652594 0 0 0
1802 9 1 1.7399160273861505 19.671253856597566 10.763955933829104 0 0 0
1800 9 1 2.068464413945354 19.61296180715997 8.188594122850436 0 0 0
1799 9 1 1.4940841817692672 19.106557844952015 6.8977295991024405 0 0 0
1803 9 1 1.267577287282927 18.86780282419832 12.015018600012109 0 0 0
1801 9 1 1.303397608099693 19.150016415889134 9.423114726590299 0 0 0
4040 19 1 9.90309248949778 14.879755721934105 8.451002258198843 0 0 0
4042 19 1 10.0069817156543 15.031483082448023 10.964411775037615 0 0 0
4039 19 1 9.173429941605079 15.15096993840582 7.147085129615233 0 0 0
4041 19 1 9.092989876075718 15.045761274556625 9.695778495307598 0 0 0
4265 20 1 13.158844998452627 17.471792766952 9.846904321744486 0 0 0
4263 20 1 13.479851132236096 17.661672103677752 7.331820004435512 0 0 0
4267 20 1 13.60737677451254 17.40573135435907 12.44469326579016 0 0 0
4266 20 1 13.737731339498772 16.725556525380696 11.084494968022092 0 0 0
4264 20 1 13.703115010849736 16.814398218150075 8.59685433227453 0 0 0
4043 19 1 9.29801518359971 14.903672663770584 12.298182474743879 0 0 0
4490 21 1 9.989082612109431 19.335979340292198 11.336281955159352 0 0 0
4488 21 1 10.147738455146843 19.680508807651165 8.766917663233933 0 0 0
4491 21 1 9.354095775748869 19.807834180859686 12.616323862412953 0 0 0
4487 21 1 9.294222370620773 19.931249067937088 7.5066875615606925 0 0 0
4489 21 1 9.428048019354101 20.069337607862607 10.112805077312705 0 0 0
2246 11 1 2.3250193003698207 23.776547821092876 5.517621092428484 0 0 0
2473 12 1 5.28416063822358 0.1428132343389964 8.650832630675996 0 1 0
2475 12 1 5.4243606501967845 0.0910259690289115 11.254880219429573 0 1 0
2476 12 1 5.299707029234375 26.245906522854632 12.546705392143481 0 0 0
2472 12 1 5.406679482114578 26.24900444660912 7.379786692927212 0 0 0
2474 12 1 5.280224781751302 26.197121765235224 9.920986084978194 0 0 0
2026 10 1 5.4052824384794596 21.54820468275834 12.57666024606985 0 0 0
2024 10 1 5.505827707511899 21.6776554344734 9.965301546561758 0 0 0
2250 11 1 2.187252302075695 24.151617119918036 10.673452027778538 0 0 0
2251 11 1 1.1870070383547595 24.242814287971704 11.835842924871182 0 0 0
2022 10 1 5.691804992542586 21.663563653329255 7.481358470013216 0 0 0
2023 10 1 6.067892239650314 22.3892834807312 8.757182600706622 0 0 0
2025 10 1 5.786066626047576 22.352662998268436 11.343654653939275 0 0 0
2247 11 1 1.5506560061511045 23.882989331766822 6.795057669436529 0 0 0
2248 11 1 2.3946773802111645 24.007406247815958 8.125034603362154 0 0 0
2249 11 1 1.5478736225309513 23.745241406044215 9.378908808464356 0 0 0
2027 10 1 5.600254068005274 22.183173472905395 13.920269652144551 0 0 0
4932 23 1 9.830920511584178 23.873610505116403 5.713568269098192 0 0 0
5163 24 1 12.736081125358275 26.74147086321632 12.002956567028962 0 0 0
5161 24 1 12.834494087135512 26.674149505887307 9.35588852994116 0 0 0
5159 24 1 13.160119605414005 26.5747994542021 6.769230220659144 0 0 0
4712 22 1 14.10098464158191 21.657409809548994 8.328883819945872 0 0 0
4714 22 1 13.871044315962715 21.344751005551174 10.94219896491804 0 0 0
5162 24 1 13.387950732211488 26.213674665601566 10.70070962792032 0 0 0
4715 22 1 13.037605751855693 21.683439011557667 12.156973005408505 0 0 0
5160 24 1 13.51414289791319 26.062318693619545 8.136350241849684 0 0 0
4711 22 1 13.479304707010979 22.28979154762103 7.118983212683194 0 0 0
4713 22 1 13.299504606891253 21.868498000047218 9.586574358958005 0 0 0
4933 23 1 9.098023158929145 24.28316978236176 7.002493714144437 0 0 0
4934 23 1 9.914849391630735 23.923316434403198 8.280480894031713 0 0 0
4935 23 1 9.284377484104454 24.371193672087777 9.621300768028581 0 0 0
4937 23 1 9.093491220422301 24.303059542100506 12.123364579831943 0 0 0
4936 23 1 9.935489741442147 23.79137671092404 10.950977700128774 0 0 0
12 1 1 1.5756196618439557 1.4318259611883801 13.677192275167751 0 0 0
239 2 1 5.4980428734081395 4.3238201657254045 13.804600229732864 0 0 0
241 2 1 5.304717697059863 4.346074494765528 16.36480132906123 0 0 0
240 2 1 4.604226916900712 3.9949276487414016 15.03920915882092 0 0 0
242 2 1 4.601140095126985 3.780067491128131 17.576062451665656 0 0 0
16 1 1 1.8050872041665849 1.0984116011712477 18.56934915423749 0 0 0
14 1 1 1.5505843510890305 1.3573444775965329 16.150599047364086 0 0 0
243 2 1 5.310091820936803 4.1148584536730395 18.878289761378767 0 0 0
464 3 1 0.9870128015329247 5.32823365866561 17.52737308719288 0 0 0
15 1 1 0.8992826416345305 0.9153048579306895 17.405531160313213 0 0 0
462 3 1 1.4506484230897292 5.240104326933166 15.026722033333211 0 0 0
461 3 1 1.5789980703106727 6.120462148738873 13.744706862270098 0 0 0
463 3 1 1.12056475522216 6.098770394809303 16.22791982995669 0 0 0
13 1 1 0.6871525297953903 1.1230665198289838 14.941919347037022 0 0 0
244 2 1 4.483175466744719 4.030526737682302 20.167151801743817 0 0 0
465 3 1 1.3548468316755085 6.0682147176620855 18.76571797429882 0 0 0
466 3 1 1.1951644268045025 5.2850089951062 20.04265477310096 0 0 0
17 1 1 1.1415332943374574 0.7492726409143518 19.963410595255425 0 0 0
2700 13 1 9.934951178882217 1.6497762792336712 13.622457804105986 0 0 0
2924 14 1 13.768563530997278 3.6473830144392645 13.282540007895598 0 0 0
2925 14 1 13.179790954965238 4.180975101659638 14.609325249386506 0 0 0
2927 14 1 13.213874789884299 3.8949371440511174 17.138429973318157 0 0 0
2701 13 1 8.95241738147624 1.8833436875125746 14.76260511702079 0 0 0
2703 13 1 8.782225219852672 1.924754496577008 17.4823355550263 0 0 0
2926 14 1 13.743148806032114 3.407364966359136 15.801171756732348 0 0 0
2928 14 1 13.798690678642764 3.2773139733275407 18.42844474715788 0 0 0
2702 13 1 9.506394203585282 1.5227520071164582 16.148468028987743 0 0 0
2704 13 1 9.501466566569857 1.3563731141377278 18.696604478521643 0 0 0
3151 15 1 9.825486369716911 5.723003046081803 18.688279705943497 0 0 0
3147 15 1 9.886656318286864 6.221873504945227 13.643107156301605 0 0 0
3149 15 1 9.886112889249743 6.077997785373602 16.160678949572766 0 0 0
3150 15 1 9.128994435585492 6.361834305685397 17.435437065164184 0 0 0
3148 15 1 9.187869569336042 6.593511865005905 14.935152881793805 0 0 0
2705 13 1 8.83094779365946 1.7313675969155875 20.039545233742786 0 0 0
2929 14 1 13.27015544673976 3.743357565998115 19.834810023990222 0 0 0
3152 15 1 9.063550058327467 6.080449572202941 19.96460645739434 0 0 0
685 4 1 5.7255852226598964 8.952474638347308 13.32042029861848 0 0 0
910 5 1 1.9487410916812289 10.784799797566816 13.28466444927664 0 0 0
688 4 1 5.12237080555136 8.20978702388127 17.11848673996166 0 0 0
686 4 1 5.083573195725471 8.248833550838437 14.527986822084713 0 0 0
912 5 1 1.7668456073086098 10.924018945880087 15.842228770161412 0 0 0
914 5 1 1.8076295984482051 10.9592703674818 18.498641493198946 0 0 0
687 4 1 5.75853938162697 8.747893448274652 15.812419496868184 0 0 0
689 4 1 5.69835571932815 8.74187778134233 18.42963674695338 0 0 0
911 5 1 1.2521292870533196 10.29342969403807 14.563864608927426 0 0 0
913 5 1 1.2284161019008542 10.390671662581981 17.167506458768873 0 0 0
1134 6 1 4.863176827086855 12.892340862756368 14.413217063324144 0 0 0
1136 6 1 4.82166789856567 13.121465459172153 16.924021708597756 0 0 0
1137 6 1 5.811221242954881 13.216871581961378 18.133646477239893 0 0 0
1135 6 1 5.4977803897609405 13.542312594355394 15.682616063341616 0 0 0
1133 6 1 5.759965224416039 13.188974258672193 13.157041587043095 0 0 0
690 4 1 5.177344355488467 8.168175558348784 19.734418361052697 0 0 0
915 5 1 1.5225842254305773 10.008178672475665 19.670892892644474 0 0 0
3372 16 1 13.962183142600871 7.932090819644756 13.44325283810373 0 0 0
3376 16 1 13.9161031533743 8.246304970631202 18.739165744166016 0 0 0
3374 16 1 13.904387223874467 7.8722939851084694 16.099782858839177 0 0 0
3596 17 1 9.898179131926256 10.502305570486863 13.584441782756967 0 0 0
3820 18 1 13.486044938677699 12.209391652768367 13.60794693222521 0 0 0
3375 16 1 13.097249008370476 8.228528062979347 17.39392694503953 0 0 0
3599 17 1 8.93082664186277 10.431707412104409 17.40589655197613 0 0 0
3373 16 1 13.149157987774126 8.035970771755855 14.773484460384044 0 0 0
3597 17 1 9.05960740594266 10.575412813655854 14.931337190445927 0 0 0
3598 17 1 9.785545572627177 10.060726929560618 16.211334055381155 0 0 0
3600 17 1 9.705880384782684 9.874074564083834 18.635520765645428 0 0 0
3824 18 1 13.065460444052599 12.075638302744828 18.755658405193582 0 0 0
3822 18 1 13.34023506215898 12.11371449548146 16.198279004630997 0 0 0
3821 18 1 13.468134898678233 13.00641291809841 14.911004565932355 0 0 0
3823 18 1 13.420338093600213 12.92862107326034 17.51315668123738 0 0 0
3825 18 1 13.214937174633375 12.924234549327986 20.013345778827425 0 0 0
3601 17 1 9.042097848021486 10.10965623638681 19.987502527553936 0 0 0
3377 16 1 13.15801782459654 7.93502140567883 19.950794103326285 0 0 0
1359 7 1 1.2268385133205422 14.400622852493857 17.147847298520727 0 0 0
1357 7 1 1.211051455761529 14.483589142180776 14.633688883832473 0 0 0
1579 8 1 5.897869617883636 18.068306538905702 13.329532138117754 0 0 0
1356 7 1 1.8066548093695887 15.177725633861584 13.433154399268876 0 0 0
1360 7 1 1.5623311109515627 15.118676738005083 18.487331242573845 0 0 0
1358 7 1 1.6251826022461051 15.19435339150056 15.939933633153746 0 0 0
1580 8 1 5.182216069295417 17.420492834740855 14.538177300285335 0 0 0
1583 8 1 5.523264192919105 17.572059802055804 18.433887541428735 0 0 0
1582 8 1 5.058848976427607 17.045948434003265 17.104237457316245 0 0 0
1581 8 1 5.839071123541291 17.647282504410782 15.920196146677782 0 0 0
1807 9 1 1.1378001205337975 18.747276188928247 17.249467032198513 0 0 0
1805 9 1 1.0510995391257585 18.768233275050555 14.632606634423428 0 0 0
1584 8 1 5.090910232201152 16.858248393093106 19.703506553944155 0 0 0
1804 9 1 1.6701230089063406 19.46224828474996 13.401740747768871 0 0 0
1806 9 1 1.6147422727698308 19.343346965680134 15.942216902066363 0 0 0
1808 9 1 1.6164642618183613 19.49222415029662 18.52079944992353 0 0 0
1361 7 1 1.0675496138633753 14.288587724753265 19.64461366321343 0 0 0
1809 9 1 1.3902356984527506 18.65692718576946 19.77431637892315 0 0 0
4268 20 1 13.755258728258436 16.686953368185755 13.760214692363483 0 0 0
4492 21 1 9.926828089650305 19.189382548307385 13.832714824095618 0 0 0
4044 19 1 10.171355916064202 14.84153093475092 13.548132449687312 0 0 0
4048 19 1 9.729293273909649 14.922137589864947 18.66061593465504 0 0 0
4046 19 1 10.004053227125612 15.063046484310327 16.178819497530146 0 0 0
4270 20 1 13.77087738900892 16.628854728198007 16.34174847493664 0 0 0
4045 19 1 9.365062981035438 15.315388222010778 14.762985872719767 0 0 0
4047 19 1 9.049687748085368 15.418634393597712 17.362470802058226 0 0 0
4269 20 1 13.559665697200199 17.482788936962635 15.116219716403528 0 0 0
4271 20 1 13.251470748778594 17.32613184285264 17.58202778757629 0 0 0
4272 20 1 13.623941367278757 16.608400996473023 18.929184304370995 0 0 0
4494 21 1 9.77039992364897 19.21816900368897 16.460843059137062 0 0 0
4496 21 1 9.627149811470304 19.169898832209604 19.017277344106468 0 0 0
4495 21 1 8.974227918166058 19.63440889245846 17.674405543076293 0 0 0
4493 21 1 9.124525213921903 19.572693375450136 15.126491048040918 0 0 0
4049 19 1 8.928528442210276 15.312465525952332 19.942792856268433 0 0 0
4497 21 1 8.73548927378179 19.482552887905676 20.225482114838243 0 0 0
4273 20 1 12.836619022160853 17.181411738507677 20.102175274848367 0 0 0
2477 12 1 5.56495707073325 0.20909265233012497 13.805561748643738 0 1 0
2479 12 1 5.099724241822397 0.08227070101173675 16.397077476155022 0 1 0
2481 12 1 5.103482423118842 -0.09311419853491612 18.999758551441886 0 1 0
2480 12 1 5.293501773805989 26.054808044735992 17.66027989317661 0 0 0
2252 11 1 2.0428021027088037 24.191413187054472 13.106037098860455 0 0 0
2478 12 1 5.5617096731873845 26.28514300943609 15.093810882911043 0 0 0
2030 10 1 5.402269280937992 21.228194928706046 17.732711562950968 0 0 0
2028 10 1 5.237071299472992 21.33345880537859 15.117353593446683 0 0 0
2029 10 1 5.612884976144801 22.02207725661124 16.422518164172413 0 0 0
2254 11 1 2.0983923765836483 23.896879467558698 15.687284975725603 0 0 0
2256 11 1 1.8077863612507736 23.56493235941543 18.347377293869965 0 0 0
2253 11 1 1.2272029513474525 24.225348449138444 14.452580657632932 0 0 0
2031 10 1 5.5790752133603565 22.127768387321908 18.947943794540276 0 0 0
2255 11 1 1.2283137710791459 23.798305239007504 16.939866032599458 0 0 0
2032 10 1 5.495346137400934 21.37910138913518 20.274627801523046 0 0 0
2257 11 1 0.8193476726115253 23.26493496120925 19.470872329254508 0 0 0
2482 12 1 5.186118992496645 25.890526779214973 20.271652382054775 0 0 0
4938 23 1 9.610184020788664 23.73902129083458 13.461100645581396 0 0 0
4716 22 1 13.625685784935635 21.2687412123924 13.510909430439114 0 0 0
4718 22 1 13.448778996249583 21.21349509796387 15.913632869822198 0 0 0
4720 22 1 13.704749610830124 21.188987843505053 18.49939139665967 0 0 0
5169 24 1 12.902505611809548 26.689785062367385 19.726900026186772 0 0 0
5165 24 1 12.770119509317102 26.481997638041626 14.575173967709746 0 0 0
5167 24 1 12.797015689144878 26.717571379641726 17.15397426232281 0 0 0
5164 24 1 13.406411743414903 26.179714348870746 13.220776476250803 0 0 0
5168 24 1 13.504133014378574 26.228409670105655 18.377273128222253 0 0 0
5166 24 1 13.439395025433948 26.05521073090999 15.865992881065385 0 0 0
4717 22 1 12.799912322999562 21.748285454501378 14.687261566415177 0 0 0
4941 23 1 9.382346164479491 24.688814323742385 17.219800713074033 0 0 0
4939 23 1 9.047851302307564 24.307299399207977 14.756558530740778 0 0 0
4940 23 1 9.939126602361966 24.146677081287734 15.96676474432007 0 0 0
4719 22 1 12.948682672962507 21.734196714627295 17.24839951810335 0 0 0
4942 23 1 9.77064939273071 23.841679348118603 18.45179499015665 0 0 0
4943 23 1 9.06468064864984 24.31594459902145 19.73583706089621 0 0 0
4721 22 1 12.975988293000427 21.63599205465667 19.740278947787523 0 0 0
247 2 1 5.633958490153509 4.209451955938106 24.00333632636034 0 0 0
245 2 1 5.295915311139077 4.248835731142604 21.466885201467402 0 0 0
248 2 1 5.062616379235692 3.524743759916 25.25916492703355 0 0 0
246 2 1 4.75177623541821 3.814541800501853 22.808563130814562 0 0 0
18 1 1 1.9338863222168157 1.1982912684453635 21.16017493157268 0 0 0
22 1 1 1.6153589404993773 1.642446255883944 26.167659497512332 0 0 0
249 2 1 5.7013571693474 4.003466182883651 26.543972261219757 0 0 0