LAMMPS data file via write_data, version 23 Jun 2022, timestep = 11111117

9706 atoms
2 atom types
9690 bonds
3 bond types
9674 angles
3 angle types
9658 dihedrals
3 dihedral types

0 36.89775039 xlo xhi
0 26.67072 ylo yhi
36.93084068509815 199.82076371483362 zlo zhi
0 5.124871653410534 0 xy xz yz

Masses

1 14
2 15

Pair Coeffs # lj/cut/omp

1 0.0914 3.95
2 0.1947 3.75

Bond Coeffs # harmonic/omp

1 449.5 1.53
2 449.5 1.53
3 449.5 1.53

Angle Coeffs # harmonic/omp

1 62.0967 114
2 62.0967 114
3 62.0967 114

Dihedral Coeffs # opls/omp

1 1.411 -0.271 3.145 0
2 1.411 -0.271 3.145 0
3 1.411 -0.271 3.145 0

Atoms # molecular

1 30 1 8.170127972867741 22.94691917149996 41.16573747615246 0 -1 0
2 30 1 9.351860517375565 21.76360581626429 41.007753892400245 0 -1 0
3 30 1 10.553261818224753 22.155494887051873 41.83417266237949 0 -1 0
4 30 1 10.298701420312405 23.031047309838144 43.129839272132486 0 -1 0
5 30 1 11.524636601157374 23.0253690225984 43.975229800713144 0 -1 0
6 30 1 11.449425276768352 23.85529716328291 45.211138601680304 0 -1 0
7 30 1 12.588465727528817 24.610310848925693 45.76584917502194 0 -1 0
8 30 1 12.565944288372283 24.90486550315453 47.1617295700152 0 -1 0
9 30 1 13.78733006947769 25.64873414648445 47.66508426263158 0 -1 0
10 30 1 13.489140499712471 26.51902817068132 48.82589431604327 0 -1 0
11 30 1 14.720493342656184 0.5526781093676135 49.42508199013905 0 0 0
12 30 1 14.641057228193707 1.1122176098040022 50.79701748316492 0 0 0
444 5 1 10.117045929483243 24.625204807852153 37.52310994425971 0 -1 0
9178 62 1 2.228774847059217 19.56738555128585 41.76969984919024 0 0 0
7141 43 1 1.9561190977603804 21.837803617033448 49.055591062979346 1 0 0
7289 45 1 4.127552633754032 23.37108864696517 46.8724238661015 1 -1 0
2969 47 1 16.186981384007407 26.33117692259713 38.435331751068865 0 -1 0
1217 52 1 11.128568850667548 6.790087278319257 38.87050840960759 0 0 0
686 10 1 17.5154459717508 6.954686604921535 47.648427005595686 0 0 0
4028 34 1 16.75307931689213 13.84085616059249 39.92570270590458 0 0 0
7451 46 1 2.0568480417338857 1.5728488626469095 42.155914362619136 0 0 0
223 30 1 6.001317095532584 24.003507785193438 40.20228929600751 0 -1 0
224 30 1 7.146928511227122 23.063984455783995 40.02996458834013 0 -1 0
225 5 1 13.9935030733586 24.585272509070524 41.30564437581862 0 -1 0
226 5 1 13.978649851122304 25.37882227406474 42.50408916289138 0 -1 0
227 5 1 15.211470693434238 25.911666434728673 43.2133905776664 0 -1 0
228 5 1 14.814109434551568 0.1603092822932712 44.43812279583289 0 0 0
229 5 1 16.084023343889505 0.5846197335358895 45.152219826638714 0 0 0
2139 61 1 2.2747345816488607 22.282570657046733 37.28537241021215 0 0 1
445 5 1 10.707968107196214 24.270064066249912 38.84692321721226 0 -1 0
5931 1 1 4.299901891514205 9.782950109533049 51.40461078223503 1 0 0
2145 14 1 9.91833077120037 20.132967276714208 37.80022131580257 0 0 0
7453 46 1 3.9582257231755467 0.21570744520225127 43.057368139147265 0 0 0
5928 1 1 1.7473856934021308 8.841383077098103 48.773049455336285 1 0 0
8963 59 1 5.7298771647896425 15.781516204874565 48.40454545024224 0 0 0
2057 12 1 5.75633213295414 19.747711222359573 39.433420006574536 0 0 0
9399 57 1 4.393081701302214 19.287085090364727 46.10422127888962 1 0 0
1434 50 1 2.6733424754760917 12.962802980107739 37.97759577130946 0 0 1
2968 47 1 15.018850193062539 25.53543852828546 37.93863470463128 0 -1 0
447 5 1 12.94791088907826 23.47320531379571 39.579453480232 0 -1 0
448 5 1 12.730516948904471 24.64221472681446 40.547632424932694 0 -1 0
449 7 1 12.343505432608497 1.9143206829895385 46.01607654920613 0 0 0
450 7 1 13.15307690326513 3.235431959780677 46.30422445748197 0 0 0
451 7 1 13.189213283892423 3.31947659674264 47.815230015953624 0 0 0
452 7 1 13.946263513520982 4.495699134095519 48.24331412618239 0 0 0
453 7 1 14.520149756986303 4.266695292165697 49.62014184043539 0 0 0
1758 6 1 3.3540590997369426 16.803185340442226 38.124111608871495 0 0 1
972 9 1 3.743751472722031 7.791311597449452 38.93056168434816 0 0 0
2140 61 1 3.0140417434305564 22.043240628825945 38.56332311659346 0 0 1
1534 60 1 17.10728982607856 14.769507075076179 47.26688276771826 0 0 0
9397 57 1 2.6120920732425046 20.33220328253258 45.3004858079099 1 0 0
2146 14 1 11.184149840738415 20.062192705858546 38.72630133806323 0 0 0
9179 62 1 3.210377579657687 18.36985204544861 41.559318384622536 0 0 0
1537 60 1 18.520035604224276 17.195353538215272 49.516908319713664 0 0 0
4415 28 1 15.319510435376475 17.318134853775785 37.89811923849679 0 0 0
9403 57 1 6.7003774179417 21.26648743512034 49.88439255979316 0 0 0
2153 14 1 15.022756406277628 22.40676857334622 44.6609144148879 0 0 0
9185 62 1 7.7984052477669845 16.920157080005172 45.3186936357562 0 0 0
7140 43 1 0.87592783661079 22.860483266413663 49.30536658075111 1 0 0
668 7 1 9.40863355344519 26.286517047346628 41.072330269580725 0 -1 0
669 7 1 10.214096668066498 26.08582847649847 42.34367124868529 0 -1 0
670 7 1 10.384235617307581 0.8078129618970299 42.71438003440913 0 0 0
671 7 1 11.266851241412155 0.7661153255772227 43.97557139273354 0 0 0
672 7 1 11.830242039773115 2.052316516617351 44.543687377440556 0 0 0
8731 56 1 1.33188738371003 15.25056210830973 40.38850385095388 0 0 0
1215 52 1 9.269566338346888 7.779016201495649 37.59737012791869 0 0 0
675 10 1 10.412466127593039 1.6125960924626026 38.72963310781239 0 0 0
676 10 1 11.763243254634112 1.1479502113059818 38.22024073955567 0 0 0
677 10 1 12.681941129660457 0.9502339773504005 39.35155376462237 0 0 0
678 10 1 13.034434759502863 2.2505188641262945 40.080906644456476 0 0 0
679 10 1 13.467252332882762 1.9935874888160592 41.51029257099153 0 0 0
680 10 1 14.109934676450077 3.350360520830333 41.823139626633804 0 0 0
681 10 1 14.63816666845621 3.547130059413375 43.35821350561751 0 0 0
3582 22 1 16.36856935085867 8.573289377287846 38.11820358987017 0 0 0
7672 47 1 1.5389379072899727 3.4774746287773697 45.574461073089736 1 0 0
661 6 1 2.5916717110165313 4.641718973368692 38.15053378947969 1 0 1
2747 47 1 17.354759319603865 0.5537271004512068 40.46333790268726 0 0 0
6375 39 1 3.201066198175311 14.374684825307819 50.89216440071238 1 0 0
8282 5 1 6.455474575471553 8.576082851707826 43.55375386813339 0 0 0
1757 6 1 2.7082599974089936 18.18086065029914 38.08822869182763 0 0 1
7450 46 1 1.347637153199655 1.8412990096095427 40.844346597006414 1 0 0
3199 19 1 18.486824892297342 6.0641432356313185 42.65617520044278 0 0 0
897 9 1 7.294347965912662 5.070078975802544 40.55281012121874 0 0 0
898 9 1 8.702691572450757 5.273660561900346 40.897194783512745 0 0 0
899 9 1 9.284628921131826 3.862634203827096 41.14854403017362 0 0 0
900 9 1 10.550247390956132 4.117649962536543 41.97916861117797 0 0 0
901 9 1 10.4903413710271 5.429617122187361 42.89408397298687 0 0 0
902 9 1 11.678088149194426 5.636237418299718 43.73829821487445 0 0 0
903 9 1 11.607198324043727 6.4947749236194054 44.83895832529686 0 0 0
904 9 1 12.89148250239013 6.568118265007329 45.530307414717484 0 0 0
905 9 1 12.593760391212944 7.534785203611988 46.686648266440834 0 0 0
906 9 1 13.958767758280473 7.79155785996885 47.30698122491313 0 0 0
907 9 1 13.795343112108597 8.907679211375692 48.295026465039236 0 0 0
908 9 1 15.120425704809767 8.832946808620301 49.19673520295323 0 0 0
909 9 1 14.950706892579513 9.585292051906421 50.542536708872845 0 0 0
971 9 1 3.229837455562992 8.231040514163212 37.56406335759185 0 0 0
9402 57 1 6.730635408217186 19.898136575681267 49.094740295613605 0 0 0
9638 12 1 9.150379826391472 21.551283847599716 46.766188561084974 0 0 0
8742 56 1 10.62045558678452 14.294382564647679 48.35364150197481 0 0 0
9181 62 1 5.133572973814734 17.26487762513401 42.41326979754318 0 0 0
7449 46 1 0.4576286960875049 3.0299267595070005 41.032065187777576 1 0 0
5927 1 1 1.3211316637182011 10.125522657533867 48.4205757295296 1 0 0
2055 12 1 4.279172018745106 21.231752901737902 38.380016528465795 0 0 0
13 30 1 15.865210134161652 1.8972615013436112 51.28038296132217 0 0 0
975 9 1 6.855486293431922 6.31942165193528 39.97273328528961 0 0 0
1134 52 1 13.203450030466204 5.408176760975948 39.52284373426667 0 0 0
1135 52 1 12.960625538960747 6.53887556512987 40.499901551521134 0 0 0
1136 52 1 14.2653433516815 7.073965555231811 41.07997471821016 0 0 0
1137 52 1 13.877467527802006 7.852181132584193 42.32079856128442 0 0 0
1138 52 1 15.160334783674669 7.982269751772322 43.154342985303465 0 0 0
1139 52 1 15.11366622956205 8.884257260506988 44.35755279637068 0 0 0
1140 52 1 16.40474597015781 9.48901530743223 44.86947126012 0 0 0
1141 52 1 16.44171147901794 9.8547828421542 46.32933514789652 0 0 0
4414 28 1 15.244738176829026 15.907561120370026 37.378122224434655 0 0 0
1216 52 1 10.081523195730853 6.568849347240921 37.74762933756064 0 0 0
687 10 1 17.874366181688394 6.7278193993901825 49.07631540330971 0 0 0
660 6 1 1.6130233432065018 4.404096775658189 37.091837818130344 1 0 1
6372 39 1 0.7460691790706939 14.438042508052527 48.835435687581025 1 0 0
8962 59 1 5.4996092694358945 14.496963864879044 47.66743475164205 0 0 0
1610 9 1 16.16181220312956 19.051042836011618 51.00246375176463 0 0 0
9396 57 1 1.2699714741854615 21.021860213633587 45.43017772257621 1 0 0
2144 14 1 9.036062031229823 21.384807419425126 37.73152749398976 0 0 0
7675 47 1 4.619930849177177 1.2816436926396915 46.07467233393263 0 0 0
1219 10 1 10.37715241064551 9.625955548482297 43.05010302265683 0 0 0
1220 10 1 11.471129011982725 9.823134551081031 44.01008246672419 0 0 0
1221 10 1 11.271031344490309 11.028437654050531 44.830929665304545 0 0 0
1222 10 1 12.650865052772776 11.125580171684303 45.588928922070686 0 0 0
1223 10 1 12.875591626704104 12.216191616087833 46.59804951762341 0 0 0
1224 10 1 13.74096896415429 11.957719021353368 47.833339593411885 0 0 0
1225 10 1 13.702416447387797 13.072878323295313 48.86385696806005 0 0 0
1226 10 1 14.768991685431589 12.909435361817133 49.966546990513436 0 0 0
1227 10 1 15.217591284665453 14.24082561829674 50.37623228105862 0 0 0
3583 22 1 16.218931987567387 9.074136333237636 39.588822205802714 0 0 0
8280 5 1 4.157941284017973 9.511973959182885 42.738421591757955 1 0 0
1535 60 1 17.15313971855146 16.097873274273233 47.81753552275718 0 0 0
1522 60 1 9.019223663882533 12.293709272842895 37.5930912766229 0 0 0
2587 15 1 17.525532194702947 23.105609182200695 40.63309070097905 0 -1 0
5544 59 1 1.9278945772296203 4.115016018180096 49.04783805376352 1 0 0
8293 5 1 12.515347056282152 12.69445375855728 52.893596044867635 0 0 0
8061 54 1 0.6129575618479317 8.090379280692966 44.04045257377021 0 0 0
6766 41 1 3.080171400368673 17.355796197989534 49.77648279996293 0 0 0
7674 47 1 3.5181510818604775 2.144147692256567 46.4386494775742 0 0 0
1439 10 1 7.7008270288024585 9.897213951725817 40.058528343913544 0 0 0
1440 10 1 8.732722047664673 9.909815527797015 41.0651772971606 0 0 0
1441 10 1 9.284960515861433 8.571279947993993 40.97490295327657 0 0 0
1442 10 1 10.502383988505676 8.598099863662073 41.94926631855801 0 0 0
1435 50 1 3.7684224199282865 11.996773917068621 37.76193938879484 0 0 1
4105 34 1 15.655394268010744 12.301707875629218 38.2414537069877 0 0 0
3585 22 1 17.445357726255867 10.204758016548553 41.308624640144515 0 0 0
1525 60 1 12.064495122161068 10.321563179667233 38.041144544357216 0 0 0
1526 60 1 12.877712996277493 10.021471612325032 39.32145958457169 0 0 0
1527 60 1 13.134111131355688 11.311987907102672 39.96061723080528 0 0 0
1528 60 1 13.776271921082708 11.141524300275883 41.33938357072178 0 0 0
1529 60 1 14.25349813151253 12.394918852690484 42.060274816849834 0 0 0
1530 60 1 15.112944936443062 12.1868013500356 43.31264953766702 0 0 0
1531 60 1 15.274123537168812 13.361271119680152 44.19847907742148 0 0 0
1532 60 1 16.256557577262743 13.457001448920309 45.319913181507026 0 0 0
2156 14 1 17.37350911576484 24.303654260459396 46.88344769501177 0 0 0
1218 52 1 11.769433442487658 5.33394183821956 39.11539471783882 0 0 0
6767 41 1 3.480665783122957 18.766791674115805 50.307721621128465 0 0 0
7292 45 1 6.5598584773025985 24.56106901747831 49.19180029281233 0 -1 0
2058 12 1 6.8306985517332555 19.937181495533704 40.46388008191992 0 0 0
7142 43 1 3.1899564462342753 21.971315163465185 49.90497736338331 0 0 0
2586 15 1 16.208493014696224 23.04032859420065 39.76450434460039 0 -1 0
1601 9 1 10.552222170650994 14.07750743193648 42.89870689461118 0 0 0
1602 9 1 11.803691815604703 14.22675952411167 43.694213695347 0 0 0
1603 9 1 11.553238784430585 15.142127384020615 44.81624005705644 0 0 0
1604 9 1 12.858874254884004 15.271444981084713 45.64027557157674 0 0 0
1605 9 1 12.79013453054148 16.35843594378095 46.67546459983857 0 0 0
1606 9 1 13.694885970286292 16.27895873446682 47.758240591471726 0 0 0
1607 9 1 13.824194352413876 17.6444522969093 48.3180999292329 0 0 0
1608 9 1 14.736475923683697 17.69464668974491 49.48493968782079 0 0 0
9176 62 1 0.19558967839473046 20.460566345791776 40.62204522582912 1 0 0
9630 12 1 2.2132916952342354 23.77830789179739 41.985761660825766 1 0 0
8515 54 1 6.669105201381105 11.519873655244272 48.6276783690269 0 0 0
7848 43 1 10.2617020451537 6.589710631713148 49.38010567479641 0 0 0
9404 57 1 7.517562185271915 21.24222698367171 51.126096497653506 0 0 0
4030 34 1 17.84429722871462 15.03336456106963 41.77599734554131 0 0 0
667 7 1 8.33135495278593 0.5738566652098503 41.407172185358895 0 0 0
5546 59 1 2.8186547536422015 5.419956183473549 50.90271164312665 1 0 0
2970 47 1 16.05836692014969 0.25115182592249796 39.832033911120895 0 0 0
911 9 1 16.041217741199457 10.968640203404428 52.36728278681407 0 0 0
1675 9 1 6.7589108098219395 15.722226524191477 39.79429097329145 0 0 0
1676 9 1 7.54916934300081 14.44167295626088 39.813497515499854 0 0 0
1677 9 1 8.878549047426693 14.501962480866986 40.742809854084214 0 0 0
1678 9 1 9.521467363293716 13.222162189254833 40.823301418901416 0 0 0
1679 9 1 10.589456871890013 13.005667526361648 41.849263511268624 0 0 0
1759 62 1 12.131507988320646 14.382659050917507 38.524536445927644 0 0 0
1760 62 1 13.374606123289533 14.596383470527169 39.530657081328776 0 0 0
1761 62 1 13.015995618898254 15.236181408009946 40.823328624461894 0 0 0
1762 62 1 14.220466472812472 15.911969478491296 41.40147287058612 0 0 0
1763 62 1 14.02162783939859 16.952015193216162 42.43203838509686 0 0 0
1764 62 1 15.217721579005696 16.94331313763666 43.39171638027277 0 0 0
1765 62 1 15.126532987459402 18.185413218669535 44.40411925398327 0 0 0
1611 9 1 16.335849842321956 20.352822603475754 51.62789166769288 0 0 0
8517 54 1 7.537454425364823 12.820825398756082 50.576570381642604 0 0 0
231 5 1 17.38007010909731 1.648061446579599 46.954110949725 0 0 0
7290 45 1 5.558561340688528 23.272367455191503 47.24887923230915 1 -1 0
1674 9 1 5.369534387660378 15.514038690735754 39.02091362831499 0 0 0
666 7 1 7.512306407826371 0.8889391070079776 40.16633055140238 0 0 0
219 30 1 2.767462951214953 0.1956479392691421 38.050764333907615 0 0 0
8736 56 1 6.088042093079856 12.779786236357099 43.81588048170828 0 0 0
233 5 1 18.524586825215394 3.186556835021119 48.51512860407676 0 0 0
1536 60 1 17.872544386467936 15.976979781786671 49.08683590932004 0 0 0
3197 19 1 17.697173026133623 4.884107032306964 40.70674161983681 0 0 0
1983 12 1 10.775536088866877 17.58094232555482 42.071503897310095 0 0 0
1984 12 1 10.696596770912306 18.747835377657434 43.04074660073213 0 0 0
1985 12 1 11.673303134688847 18.525341560145428 44.23068878476042 0 0 0
1986 12 1 11.446568637820532 19.66424044122771 45.269434040466614 0 0 0
1987 12 1 12.618703421466602 20.332148365041633 45.853545452240205 0 0 0
1988 12 1 12.506742212078949 20.82276665156827 47.224776892434306 0 0 0
1989 12 1 13.67751167755077 21.703490690474187 47.46027861130888 0 0 0
1990 12 1 13.746275143166498 22.06338182315549 48.94287791761526 0 0 0
1991 12 1 15.035963871901346 22.67756286739051 49.30524335927467 0 0 0
1992 12 1 14.738178480011102 23.144053522059732 50.72886798129302 0 0 0
8957 59 1 0.8858373891737449 16.84196456700403 44.26173871353381 0 0 0
7143 43 1 3.2016359414727886 23.216686166190236 50.701102381479274 0 0 0
8733 56 1 3.486785489349377 14.2065180601153 41.39411643966426 0 0 0
220 30 1 3.6214915466602817 25.664985189395754 38.09844272507595 0 -1 0
8740 56 1 9.454332867802172 13.000100477157357 46.58859951595862 0 0 0
1771 62 1 18.515089233862774 22.221000718113203 49.969594520559326 0 0 0
7071 42 1 1.092378018232361 20.70169042019116 52.313217665142176 0 0 0
8277 5 1 1.5080120690286414 11.591639216344142 40.75302858310232 1 0 0
7676 47 1 5.497420230411146 1.2701972107173625 47.29144513868905 0 0 0
7144 43 1 4.125914500159821 23.05161303773794 51.86382437675619 0 0 0
8510 54 1 2.2758593238422593 11.35003123321287 45.345050559706586 0 0 0
2060 12 1 8.676612135407309 18.683712691645052 41.471599154498115 0 0 0
2061 12 1 9.606401698353238 17.47364663294066 41.18005611011013 0 0 0
9631 12 1 3.1902180160196885 22.60666228666252 41.78599273648799 0 0 0
9632 12 1 4.013549736997798 22.361998394296254 43.07931360070556 0 0 0
5930 1 1 3.1455235429305954 9.847758085749884 50.52030371659697 1 0 0
1524 60 1 10.741329157416926 10.728382543698988 38.45748875401097 0 0 0
8278 5 1 2.2703408248785397 11.140148476917068 41.9699723945593 1 0 0
682 10 1 15.301822379893544 4.83795565575694 43.688245142185444 0 0 0
2147 14 1 11.962828645708907 18.76083243757648 38.79798812000411 0 0 0
2148 14 1 13.04295500920771 19.27562216974374 39.66712304892654 0 0 0
2149 14 1 12.776937877231918 20.13331744569811 40.876357536534634 0 0 0
2150 14 1 14.03288087152491 20.586832962371805 41.577994401894074 0 0 0
2151 14 1 14.027098728974686 21.29157336601438 42.9458780478056 0 0 0
6769 41 1 4.596854688942267 19.902504540529677 52.40414609240061 0 0 0
9640 12 1 10.059985100890648 22.91100057147691 48.65474806980295 0 0 0
9635 12 1 6.9284829841608175 20.387297786573782 44.01073629654499 0 0 0
8063 54 1 2.623376777075257 6.935168530787588 44.996352254173665 0 0 0
9634 12 1 6.078445987739718 21.60956296206952 44.00830385432783 0 0 0
9398 57 1 3.3440201154697293 20.1830834808716 46.54998450938163 1 0 0
221 30 1 4.46373949608565 25.613542541797678 39.3102070801593 0 -1 0
973 9 1 5.1438058430136895 7.476281693812802 38.91028255603065 0 0 0
9180 62 1 4.043862212739835 18.21409244200292 42.79325422850655 0 0 0
1533 60 1 15.992585015919808 14.594222954566039 46.252102149853386 0 0 0
7295 45 1 7.920950422917851 0.3852549015816953 51.91154375850836 0 0 0
7452 46 1 3.1879294383608974 0.5578967786092235 41.80045673042839 0 0 0
2588 15 1 17.443452147137105 23.99364417233707 41.831602188300835 0 -1 0
2152 14 1 15.229458891104972 22.10688598993841 43.20670109133262 0 0 0
7454 46 1 5.182909405700768 26.106514322811613 42.62411807731917 0 -1 0
8958 59 1 1.9924693758522078 17.001856790113834 45.238468359755096 0 0 0
2585 55 1 16.382877520223403 22.11542754807368 38.63277124488462 0 -1 1
1436 10 1 4.439382932603661 11.804167928800148 39.11555533139591 0 0 0
6162 20 1 0.5028969353971171 11.608647957129149 52.146997363437144 0 0 0
3200 19 1 18.540133233584225 7.333871561103891 43.47643120085116 0 0 0
9189 62 1 10.178599703662574 19.323754194847574 49.30245614233931 0 0 0
1144 52 1 18.606037252380993 11.619681577715605 48.846261405127436 0 0 0
443 63 1 8.71524469929917 25.027013978681932 37.73047121609087 0 -1 1
8967 59 1 7.947110786181037 18.128008577437654 52.30631676545853 0 0 0
8071 54 1 7.290661862908368 9.047025691614621 51.686689080459224 0 0 0
2056 12 1 4.724980803652535 20.694853736543173 39.68018578652133 0 0 0
8067 54 1 5.25744806413095 6.696235625013741 48.0633650815015 0 0 0
8741 56 1 9.43451693274395 14.239072314551647 47.568405416214574 0 0 0
9177 62 1 1.2550471481454144 19.32744408690977 40.68798262645723 0 0 0
8062 54 1 1.416125976420953 7.844284137802384 45.32006409521501 0 0 0
2059 12 1 7.853520859582608 18.891904370580225 40.315569261509054 0 0 0
7677 47 1 5.312399145154233 2.3985471062103665 48.14443474372621 0 0 0
9400 57 1 5.3531962461132165 18.881560292940698 47.11384467574596 0 0 0
663 6 1 4.471314390644956 3.297216847697144 39.40151294243114 0 0 1
8744 56 1 11.584710615513943 15.005099827970565 50.48627714724225 0 0 0
2159 14 1 18.54935867360742 26.182945011237738 49.86899591750284 0 0 0
1767 62 1 16.52242720839472 19.538204140646457 46.21870632527907 0 0 0
8069 54 1 6.659070787811149 8.236609861109748 49.46261215011142 0 0 0
5543 59 1 1.134512399344377 5.393473168605173 48.71191075602037 1 0 0
454 7 1 14.91813971538607 5.511197820503785 50.29497048492526 0 0 0
974 9 1 5.381182657953194 6.428113462098598 39.90249200265497 0 0 0
8066 54 1 5.599243706802879 5.59948766436981 46.98733443207068 0 0 0
8284 5 1 7.940975873508881 7.127394527528383 44.372822032112474 0 0 0
2584 55 1 15.082372501110745 21.505372740374135 38.142773703621195 0 -1 1
7296 45 1 9.024568767557351 0.401854466139413 52.994328951764885 0 0 0
8961 59 1 4.580507322621217 14.691252515192348 46.48241410252774 0 0 0
9628 12 1 0.5396537614740399 25.244836880431592 40.86412241245183 1 0 0
9191 62 1 11.55382659911794 20.415582866463513 51.23687759406242 0 0 0
8738 56 1 8.25720629529383 11.886475480301579 44.76767046934792 0 0 0
1143 52 1 17.401649356475268 11.079807848253573 48.212278416466816 0 0 0
5103 56 1 2.308285713403107 26.459989709992474 48.64748940776446 0 -1 0
1523 60 1 9.907544054986465 11.149642451909575 37.230283657782905 0 0 0
3195 19 1 16.268436666138726 3.68337371779569 38.88196361555884 0 0 0
9629 12 1 1.5523462502126038 24.254811854097692 40.6664932903549 1 0 0
8072 54 1 8.493755581965946 9.149965309263346 52.67057823581925 0 0 0
3276 19 1 15.567862365040789 3.9340463904069503 37.61772371412454 0 0 0
7837 43 1 2.308496066546469 6.533323438917806 41.561586841681645 0 0 0
1766 62 1 16.34264405183085 18.276141490436355 45.44060606805963 0 0 0
7287 45 1 2.4296144469708247 24.4142424940125 45.690364291949784 1 -1 0
6374 39 1 2.639815171787383 13.266717720121255 49.92143763594125 1 0 0
4029 34 1 18.054116404712925 13.947066806848756 40.77815035293781 0 0 0
9639 12 1 8.969397594100595 22.809211265460263 47.5809186885667 0 0 0
9184 62 1 8.265077123869327 16.045654926460582 44.12359231763203 0 0 0
7850 43 1 11.317534400723993 7.51161472286502 51.132814312603124 0 0 0
6376 39 1 4.255078738725038 14.32197695553434 51.940736078692865 1 0 0
8965 59 1 6.936813950539412 16.792900649599503 50.607029520743396 0 0 0
2748 47 1 17.03040277511269 1.4519208058297144 41.6964152654804 0 0 0
8518 54 1 7.71610658365775 13.256757367125369 52.013290071726274 0 0 0
684 10 1 16.661847236827086 6.028449849797755 45.67269466696269 0 0 0
673 10 1 8.975574863340658 3.3521782433875322 37.46531694701697 0 0 0
8735 56 1 5.363321156807075 12.984687066059658 42.53260981479191 0 0 0
1768 62 1 17.547893507454752 19.49154113502513 47.370769967153265 0 0 0
9192 62 1 12.882645229179143 20.46008869655291 51.99063596562438 0 0 0
1229 10 1 16.283920140789863 15.672779743081628 52.017206325461416 0 0 0
1756 6 1 1.6118375201011643 17.811556058381665 37.17299837691764 0 0 1
4418 28 1 17.44325701129217 18.350253893442552 40.91334871123463 0 0 0
8745 56 1 11.454663205051407 16.19518719898138 51.44232060028024 0 0 0
1982 62 1 11.363550507959184 15.631334064712586 38.586914478559066 0 0 0
1770 62 1 18.44948097363238 20.991890465003422 49.16673161027376 0 0 0
7671 47 1 0.6541765477224271 3.5643484466919038 44.36527653294369 1 0 0
8513 54 1 5.719550724303321 10.27027874898304 46.62897524904723 0 0 0
7673 47 1 2.6551646899915107 2.494841834366984 45.2842459449793 1 0 0
4417 28 1 16.32843243442395 18.48176887499619 39.869813536952826 0 0 0
6539 14 1 0.5925035563085507 15.956506413721568 52.46713441338537 1 0 0
14 30 1 15.842349394978982 2.1238116121670267 52.81867749564482 0 0 0
5107 56 1 4.479307071759908 2.2231772852637586 52.33875755183754 0 0 0
8966 59 1 8.259984712463387 17.09254806493357 51.212765192127186 0 0 0
5708 18 1 0.5133919012988257 7.092266663805015 52.78719062006931 1 0 0
9183 62 1 7.074626268790944 15.935902159908961 43.21559540755344 0 0 0
8292 5 1 12.504739889983924 11.551519463743425 51.92504349598488 0 0 0
8281 5 1 5.330931593424609 8.59464671549752 42.40936441303377 0 0 0
665 6 1 6.523736785552673 2.048755637219629 40.31143846323351 0 0 1
7836 43 1 1.2847047643469152 6.482878968558433 40.51691213768925 0 0 0
8739 56 1 8.310934054539167 13.128180339116359 45.587653558752095 0 0 0
5545 59 1 3.291787511146603 4.643943398491433 49.71387676924087 1 0 0
9405 57 1 7.950768643462197 22.472959249951632 51.8112953927709 0 0 0
664 6 1 5.603925926364642 2.386986934530613 39.05629102283461 0 0 1
8514 54 1 5.473298489113371 11.201475597796904 47.79080216633417 0 0 0
455 7 1 15.82336057156483 5.400232327297958 51.551445212642136 0 0 0
2154 14 1 16.343826540107315 23.03742217041461 45.18253451988549 0 0 0
9190 62 1 11.482213367131237 19.344967366474588 50.13414438153939 0 0 0
1142 52 1 17.63883455832225 10.598042210662072 46.7902716474054 0 0 0
7466 46 1 12.478918139074807 4.298936521726507 52.945138328447165 0 0 0
1994 12 1 15.796599330578005 24.235923816743792 52.81681615587146 0 0 0
2155 14 1 15.97131201123081 23.9268494826625 46.24970091077419 0 0 0
1438 10 1 6.666296856499348 10.918345606574416 40.18516434916825 0 0 0
8283 5 1 6.570579438258003 7.178137770234396 43.93793654806281 0 0 0
9188 62 1 10.1842882033583 18.150404647217428 48.27922662803634 0 0 0
6373 39 1 1.8825311376647096 13.482874175912446 48.658904597524156 1 0 0
1981 62 1 10.334672266957742 15.550282624345154 37.59637802830552 0 0 0
8065 54 1 4.289548324539838 5.414781710950827 46.21694187607294 0 0 0
8743 56 1 10.384035746890568 15.120618514002365 49.59853813463924 0 0 0
6768 41 1 4.0870421833380535 18.60948325015293 51.699028506542554 0 0 0
9401 57 1 6.091415910747995 20.05772060132811 47.73185877127049 0 0 0
8960 59 1 4.047840210272552 15.983280265276118 46.29640341566873 0 0 0
1980 62 1 9.337520088641668 16.691220532233626 37.648451741880464 0 0 0
232 5 1 17.239255832048148 2.4601922069900968 48.26509963011864 0 0 0
3196 19 1 16.630364734695426 4.99531254243227 39.571686930222185 0 0 0
7294 45 1 7.664673612711484 25.774865463654315 51.252281208328576 0 -1 0
3581 22 1 15.00407021281467 8.040539991808146 37.751957388731626 0 0 0
9637 12 1 8.137898423583387 21.388811423905697 45.65783374007815 0 0 0
1769 62 1 17.410134005781046 20.845800611501584 48.12440182667828 0 0 0
9187 62 1 9.203657758995918 18.290298582598734 47.10710057256652 0 0 0
6765 41 1 2.310895997309534 17.44544762014833 48.48457886761916 0 0 0
8068 54 1 6.575581939110297 7.206009661051102 48.44239681920079 0 0 0
5547 59 1 3.9567737746014133 6.225745265251866 51.52949335661891 1 0 0
7288 45 1 3.789485973274781 24.645119217894187 46.143357021796355 1 -1 0
2157 14 1 17.44960657165643 25.066453727254824 48.148786433931754 0 0 0
7145 43 1 4.1187076512544385 24.25514598554591 52.813944381685246 0 0 0
5104 56 1 3.33792476566951 26.29305411511144 49.777508770794576 0 -1 0
1993 12 1 15.801609585438412 24.094622972819295 51.23876715635427 0 0 0
8519 54 1 9.012545399933257 14.053790029702803 52.35041673979427 0 0 0
8732 56 1 2.1846867743083407 14.923073704557485 41.58107098921683 0 0 0
9644 12 1 12.282682358797537 25.142184872011082 52.26372043294875 0 0 0
9395 57 1 0.8113809328497079 21.85506273177976 44.23965840317798 1 0 0
230 5 1 16.045006215834036 1.2410926034289458 46.542877309889136 0 0 0
5106 56 1 4.543753360269274 0.9595922326795193 51.6318062851135 0 0 0
683 10 1 15.856860960931012 4.822633948779192 45.18235818146755 0 0 0
7455 46 1 5.985464974636179 25.993903034243615 43.90714163462367 0 -1 0
7456 46 1 7.23290004922955 25.07213271619173 43.68976379791595 0 -1 0
7457 46 1 7.90287612784198 24.716190215085014 44.92151874055447 0 -1 0
7458 46 1 8.368412543902119 26.11316157326942 45.39208250893287 0 -1 0
7459 46 1 8.929203932907187 26.175245142943567 46.81781962781764 0 -1 0
7460 46 1 9.362093238324276 0.8857105517756463 47.29183587168961 0 0 0
7461 46 1 9.844010340224397 0.6674627689593599 48.61699443413845 0 0 0
7462 46 1 10.628384724259819 1.8163828699517075 49.10668222973341 0 0 0
7463 46 1 11.243549821204411 1.8916809574303015 50.46598740429991 0 0 0
7464 46 1 11.38108511515084 3.2404785094564765 51.05849265082749 0 0 0
7849 43 1 11.395196118207275 6.428173313103007 50.1800027107346 0 0 0
895 10 1 7.033026936647108 4.550389369977056 36.95443166531071 0 0 0
8737 56 1 7.442237444705081 12.190006283566865 43.50857552759728 0 0 0
8279 5 1 3.333196558140483 10.1312708923526 41.555096019388614 1 0 0
9636 12 1 8.347345095037028 20.652475090293873 44.441811625892406 0 0 0
9643 12 1 11.490901016329818 25.489402036422593 51.12303686095062 0 0 0
9186 62 1 9.11021515761635 17.17735777357016 46.147293899200605 0 0 0
662 6 1 3.4398942700264525 3.381992802371624 38.317470073444284 0 0 1
8734 56 1 4.055263716814373 13.717047319843312 42.64064860506277 0 0 0
2583 55 1 15.258298503374832 20.408277860057733 37.14805739164718 0 -1 1
7679 47 1 6.40400174850516 3.535953821305165 50.18841607364001 0 0 0
5105 56 1 3.3435309155189206 0.8387526305741305 50.70150718869712 0 0 0
7285 45 1 0.4703913103414371 25.54887485784921 44.48696807726044 1 -1 0
7682 47 1 9.211955954570533 4.892549007886389 52.58097387186322 0 0 0
7681 47 1 8.023537263248967 4.865730183551902 51.57654707244758 0 0 0
9182 62 1 6.098958064000052 16.981156775346324 43.56360178544456 0 0 0
8508 54 1 0.5441231158266733 12.591547935325282 44.402723060698435 1 0 0
8511 54 1 3.7896323291617335 11.295788458094966 45.82803146348746 0 0 0
5548 59 1 3.9362134041503283 6.361651646196928 53.02154184191778 0 0 0
7293 45 1 6.975203927896193 25.88282565088225 49.911681512354114 0 -1 0
5321 28 1 0.9634400248180102 2.3245579981296633 52.19163378266348 1 0 0
7851 43 1 12.513815954917142 7.384534498391464 52.00353920316538 0 0 0
8509 54 1 1.884625411655192 12.801156424787187 45.24482421221993 0 0 0
8959 59 1 2.8161573553704558 15.737694664975242 45.380090274615306 0 0 0
7465 46 1 12.196348041950227 2.9757994246587813 52.247932930972496 0 0 0
7840 43 1 4.897425853822548 3.8000642504011624 42.810382305333924 0 0 0
7841 43 1 6.290192953644357 3.9973451831146978 43.450980055432225 0 0 0