LAMMPS data file via write_data, version 23 Jun 2022, timestep = 11111117

9706 atoms
2 atom types
9690 bonds
3 bond types
9674 angles
3 angle types
9658 dihedrals
3 dihedral types

0 36.89775039 xlo xhi
0 26.67072 ylo yhi
29.632191285847 207.1194131141175 zlo zhi
0 5.584134457618322 0 xy xz yz

Masses

1 14
2 15

Pair Coeffs # lj/cut/omp

1 0.0914 3.95
2 0.1947 3.75

Bond Coeffs # harmonic/omp

1 449.5 1.53
2 449.5 1.53
3 449.5 1.53

Angle Coeffs # harmonic/omp

1 62.0967 114
2 62.0967 114
3 62.0967 114

Dihedral Coeffs # opls/omp

1 1.411 -0.271 3.145 0
2 1.411 -0.271 3.145 0
3 1.411 -0.271 3.145 0

Atoms # molecular

1 17 1 6.170515044261181 24.06595941500718 35.40079468179007 0 -1 0
2 17 1 7.158017211220962 23.794830471618997 36.50207052855773 0 -1 0
3 17 1 7.821052062846224 25.003592427941932 37.16756520547816 0 -1 0
4 17 1 8.825138455598667 24.61790447260055 38.261065995776875 0 -1 0
5 17 1 9.23944825120349 25.75332085669006 39.149908425669 0 -1 0
6 17 1 10.3521049437627 25.49803690344992 40.2150606395198 0 -1 0
7 17 1 10.96367465295038 26.66728109693535 40.970970012799114 0 -1 0
8 17 1 12.135227894267127 26.25007152623949 41.85223902186817 0 -1 0
9 17 1 12.61876782111168 0.8079872287443421 42.633773181010724 0 0 0
10 17 1 13.985637000251971 0.5356867667788779 43.2866395498592 0 0 0
8894 59 1 5.672140163647744 18.00775096382442 45.727272016817466 0 0 0
3408 24 1 11.181325940792851 5.6260562668244365 30.5009495339958 0 0 1
2366 29 1 18.676389945336158 0.8718017553841086 38.55496202231952 0 0 0
8893 59 1 5.437943096727559 17.669001179023294 44.25839418987694 0 0 0
8896 59 1 7.588011201129492 19.044397891897443 47.22933000961945 0 0 0
9282 62 1 5.012234230394943 21.183957427970935 43.73754666393763 0 0 0
8128 56 1 2.735461367213067 6.883323393654103 40.9427130582205 0 0 0
7449 5 1 0.647084260978595 25.083005039450445 31.894017197545704 1 -1 0
1066 8 1 9.40310526335224 8.594605135814602 33.62699078591282 0 0 1
8423 40 1 0.531440556931245 6.061682005637791 33.51368188766026 0 0 0
222 17 1 4.663521621387837 21.927530627982346 32.62337013928547 0 -1 0
223 17 1 5.200522252249554 23.209522989238927 33.3396715201103 0 -1 0
224 17 1 5.683591497796688 22.839131896833937 34.69350889374728 0 -1 0
225 3 1 12.02397832486976 0.9485558996728563 36.696395621066245 0 0 0
226 3 1 12.73052387746983 0.8041698430867019 38.05904276129476 0 0 0
227 3 1 13.651514722165322 1.971242020408491 38.24258689158626 0 0 0
228 3 1 14.764547419783009 1.7688732884623841 39.28789035607663 0 0 0
229 3 1 14.975144828928117 3.0702754118712225 39.899837662051425 0 0 0
230 3 1 15.817344190225276 3.120765607557641 41.18153553934546 0 0 0
231 3 1 17.19259292207551 2.5331265009660116 41.309891713828 0 0 0
2584 20 1 17.816234632728477 0.7950509799050709 33.296023902300206 0 0 0
1063 8 1 7.599975930143267 6.960724738490529 30.635333129633466 0 0 1
8663 62 1 0.8941705132516293 11.577692536114087 32.55320608816467 1 0 0
8421 40 1 0.63397099304422 7.506071771004653 31.46933397483581 0 0 0
3411 26 1 13.807239957950976 7.064480383804757 32.83983809323306 0 0 0
11 17 1 13.969595504480386 26.596827781509916 44.623280076779935 0 -1 0
220 17 1 4.307300569161694 23.453258092685175 30.43748686957847 0 -1 0
3028 30 1 12.480285726935161 1.775264380321766 31.567957609580844 0 0 0
442 53 1 7.950188902569636 25.555085599538454 30.24853588733743 0 -1 1
445 3 1 9.340603464967643 25.61998791838364 32.936847265481084 0 -1 0
448 3 1 11.321182997046211 26.47371756997834 36.10962938134202 0 -1 0
449 3 1 6.753632000823256 1.9249805510233908 34.785709346232416 0 0 0
450 3 1 7.315941131039708 1.7220576578264335 36.127107813165296 0 0 0
451 3 1 7.931144732933046 2.9615499880936196 36.727508184670974 0 0 0
452 3 1 8.685612551767408 2.6133229878430506 38.00640876272338 0 0 0
453 3 1 9.466149226171275 3.6716642372718424 38.7565925606743 0 0 0
454 3 1 10.314564996556541 3.194366431101355 39.85002780434314 0 0 0
455 3 1 10.876969643202274 4.403649693393472 40.5898326053439 0 0 0
456 3 1 11.741454278681731 4.173537639623851 41.86194487501069 0 0 0
457 3 1 12.263010258325359 5.466243640331628 42.511611343567054 0 0 0
458 3 1 13.523166107628725 5.157252538281633 43.12446202185364 0 0 0
459 3 1 13.722968569052782 4.100004412623958 44.14088228419401 0 0 0
221 17 1 3.725636086689498 22.390755233621466 31.471806443291026 0 -1 0
1219 9 1 4.634474536661422 8.920877111166511 32.70019035973045 0 0 0
6251 42 1 0.7613034818096142 14.070185918801819 45.21734722698037 0 0 0
7896 9 1 0.6869704896035571 2.9878150579411242 31.536689051448043 1 0 0
6691 48 1 0.7294325232322422 18.29040272546955 45.20327232728166 1 0 0
8889 59 1 2.3293544670595594 15.578567549339423 40.70253012087173 1 0 0
3855 39 1 11.707695167714485 9.65644061391658 31.14212090593742 0 0 1
5857 13 1 0.9520935572794713 9.265693576852135 44.92864954939172 1 0 0
524 3 1 3.4818107275459593 0.022479671392950158 31.57211795971042 0 0 0
525 3 1 4.472462298745312 26.441297691168135 32.709775437144025 0 -1 0
526 3 1 5.218722416420144 1.0389756243597594 33.12339863981748 0 0 0
527 3 1 5.994793422767791 0.7584873033265049 34.39846811799537 0 0 0
686 4 1 11.113931795680918 4.463334110104932 35.55023701407824 0 0 0
687 4 1 12.407616785609054 4.995961039300667 36.09163445804606 0 0 0
688 4 1 12.209829085723012 5.354811774133626 37.529612925823386 0 0 0
689 4 1 13.571333635839464 5.861833213974917 38.08871202047395 0 0 0
690 4 1 13.8149680731742 6.653278750175845 39.2925443332076 0 0 0
691 4 1 15.241749200132427 6.60551067045014 39.77306178892675 0 0 0
692 4 1 15.439391275480185 7.578825991973913 40.85999767960887 0 0 0
693 4 1 16.81765914109368 7.632049259922526 41.53974540555894 0 0 0
694 4 1 16.985948701168734 6.328015506415243 42.287297612011585 0 0 0
2805 33 1 15.754441148576298 0.11249013800637533 30.159878721114836 0 0 1
4787 35 1 17.22100264648455 23.183478336509797 32.11664710063081 0 0 1
2582 29 1 12.15789983925048 23.711145136439256 31.66811512561479 0 -1 0
3857 39 1 13.112901262417749 10.597347574953636 33.10453283228064 0 0 1
447 3 1 10.703068075396086 0.043007023025576255 34.72802676541493 0 0 0
761 4 1 8.070729522133519 3.4308707378201064 31.535534149439407 0 0 0
762 4 1 9.165675932757232 2.8932886325385816 32.473464909868916 0 0 0
763 4 1 9.539810933736037 3.8544526504380947 33.618991213944305 0 0 0
764 4 1 10.932799423565626 3.8302608455328646 34.181736734282765 0 0 0
765 47 1 8.059656143896023 6.452049986288853 35.77758210746576 0 0 0
766 47 1 8.059056099667988 7.406751509470096 36.960513955805396 0 0 0
767 47 1 9.217031891212907 7.008849425125765 37.89725993508152 0 0 0
768 47 1 9.380532580758086 8.017821350207814 38.99200901470794 0 0 0
769 47 1 10.627506119151235 7.80035243823986 39.84451705540676 0 0 0
770 47 1 10.792733183704957 8.813970521484144 40.94954863942153 0 0 0
771 47 1 12.11920735877036 8.742187472389448 41.714894613002556 0 0 0
772 47 1 12.406075872853148 9.972461432317639 42.54830533296584 0 0 0
773 47 1 13.705843115511664 9.833860179781636 43.31474264000859 0 0 0
774 47 1 13.789621825739902 8.59681250664668 44.23949025359516 0 0 0
8673 62 1 7.7525410623586275 14.855821724947015 41.46837978004176 0 0 0
1064 8 1 7.747421046066774 7.8227694133242025 31.836239448182667 0 0 1
2354 17 1 9.666940759705984 21.244798907187178 33.10995759069879 0 0 0
7901 9 1 3.224686267465314 3.207780214029455 35.380285477537264 0 0 0
1907 59 1 8.012046739386943 16.843761017463144 31.842356978305748 0 0 0
9184 61 1 0.4522168913939115 15.1338387559245 33.007029183937284 0 0 0
4036 46 1 16.194309012176 16.662322760889637 36.47777430559457 0 0 0
8887 59 1 1.1079644593631888 14.343443093956191 38.771598911363135 1 0 0
7689 1 1 1.580757947243373 1.4651507215242043 40.28434045551432 0 0 0
985 47 1 4.701109053570837 4.46763638823587 32.332284640710846 0 0 0
986 47 1 5.082602926152737 5.519533276181719 33.34881485955825 0 0 0
987 47 1 6.4621434379379314 5.280303802172592 34.034983816794615 0 0 0
988 47 1 6.770553387954791 6.477226098380983 35.02194468753709 0 0 0
1068 4 1 15.076967218975888 10.998625471583761 39.76135541402466 0 0 0
1069 4 1 15.265602622619209 12.037806862013314 40.863658914173385 0 0 0
1070 4 1 16.670710137134257 11.93193277385295 41.462159358964016 0 0 0
1071 4 1 16.735473803332535 11.102436294849594 42.699170783458136 0 0 0
3033 22 1 16.693673070931627 4.215566589961195 31.45027844433667 0 0 0
8515 56 1 5.2287483942716415 13.645264677953973 44.532319745316215 0 0 0
9278 62 1 1.5976418444469607 19.319975137336083 40.56797010383178 0 0 0
5860 13 1 3.1643712386103853 11.333970351998092 47.161603115759384 1 0 0
696 4 1 18.420902654742754 5.276917111857652 44.23260268170856 0 0 0
3861 31 1 16.30896590216355 13.113465866341931 30.352346444266225 0 0 0
9491 63 1 0.578292329025506 21.209852819260178 31.12124161687539 1 0 0
7240 52 1 7.194453465336387 1.2035580237197365 47.35344161447699 0 0 0
2125 15 1 2.9721066622013015 19.14911097348424 29.7098056364221 0 0 1
1747 43 1 3.6507656634861387 13.699461316679177 30.06956147317783 0 0 0
1143 4 1 12.257816231328286 8.80110506014968 36.22932940396726 0 0 0
1144 4 1 12.354187471974486 9.959239844670671 37.29065742922432 0 0 0
1145 4 1 13.75782020280842 10.078903030914786 37.9524820388795 0 0 0
1146 4 1 13.693343224655786 10.866596252712633 39.2418455416619 0 0 0
1147 9 1 9.404805506085584 12.570730338160041 39.0318008201066 0 0 0
1148 9 1 10.342974289975755 12.255394417171225 40.224250137438474 0 0 0
1149 9 1 10.979774862538363 13.476587501111293 41.04886166643321 0 0 0
1150 9 1 12.014308000745661 13.252961310043629 42.077599150887984 0 0 0
1151 9 1 12.505979108924247 14.549990625051713 42.65066386671937 0 0 0
1152 9 1 13.707331852768942 14.30884894844328 43.587398395439884 0 0 0
1153 9 1 13.724591356039848 13.06294397918626 44.427920101336866 0 0 0
1154 9 1 14.943003785386452 13.274908696330142 45.27604322951855 0 0 0
1155 9 1 15.212219580005064 12.050277187392918 46.14135978403261 0 0 0
1831 14 1 6.568514133580527 16.40499627361597 29.951547169421037 0 0 1
7690 1 1 2.525568325481803 2.5791695206641068 40.662823241216586 0 0 0
1906 59 1 7.546903632377065 15.756577769404613 30.864518305764264 0 0 0
3858 30 1 14.163158792755688 11.61688868493459 33.38344394539418 0 0 0
6252 42 1 1.9727306442770653 14.909045648765316 45.555465826373975 0 0 0
4631 38 1 11.756423677316738 18.239028197432756 30.96612238475557 0 0 0
9500 63 1 5.826859837053181 22.572049469681907 39.7314054153756 0 0 0
8131 56 1 4.575822440853878 7.9766831457714416 44.248638324920194 0 0 0
1220 9 1 5.004751619139158 10.201928210994417 33.37403456850351 0 0 0
1221 9 1 6.0872634053525685 9.971471542989965 34.36997478571757 0 0 0
1222 9 1 6.707184508409735 11.22599289364244 34.96066598719017 0 0 0
1223 9 1 7.576137871187342 10.77393216637172 36.180932263119495 0 0 0
1224 9 1 8.174140233946062 11.888903570197892 37.0402097476542 0 0 0
1225 9 1 8.904709018621205 11.427758345509856 38.22202724384161 0 0 0
1305 12 1 11.031364601958893 13.636963864564628 35.63136994448834 0 0 0
1306 12 1 12.315182143772839 13.60779205625942 36.42953667337894 0 0 0
1307 12 1 12.452735746881851 14.470436114912616 37.5973106626189 0 0 0
1308 12 1 13.834954776915861 14.507162130390476 38.12607973108134 0 0 0
1309 12 1 13.795913263548696 15.09408542890934 39.49347559892878 0 0 0
1310 12 1 15.229486961180845 15.357604115802674 40.06881320737175 0 0 0
1311 12 1 15.406459008044127 16.383372431028576 41.23192805088775 0 0 0
1312 12 1 16.731399267659878 16.2573401672411 41.880808333840925 0 0 0
2141 17 1 17.262136249306216 23.95219122852653 42.94699749959692 0 0 0
4630 38 1 10.55751069741039 18.648946332011747 30.070103906282743 0 0 0
5414 40 1 0.8304780816690547 4.64009808826404 45.05313409788208 1 0 0
8133 56 1 5.943092962184279 8.913708291563408 45.9716377501414 0 0 0
3409 24 1 12.476965291626154 6.173619893835635 31.058914252706213 0 0 1
4253 6 1 15.213230713364068 17.136562322057653 30.045758719734863 0 0 0
1525 12 1 8.348469114277911 12.521075914364761 31.666349743006855 0 0 0
8664 62 1 0.6719832398997118 10.560727521236423 33.621335226521566 0 0 0
1527 12 1 9.824997138553707 13.101346061600363 33.699179205450925 0 0 0
1528 12 1 10.820015639296125 12.539276243339453 34.56802139013107 0 0 0
1529 43 1 7.582129895575094 15.583101442861215 35.91499296285802 0 0 0
1530 43 1 7.963276625645299 15.695748376133485 37.41539646066517 0 0 0
1531 43 1 9.509435405958664 15.982451071729926 37.72506094552055 0 0 0
1532 43 1 9.557522805474683 16.847445763628134 39.01073348752131 0 0 0
1533 43 1 10.919879943199609 17.06191547305757 39.63235030497547 0 0 0
1534 43 1 10.933402295867932 17.704978961079824 40.95235653801752 0 0 0
1535 43 1 12.312736267361949 17.910706221497755 41.622743630800386 0 0 0
1536 43 1 12.272889607442837 18.702366091486955 42.97700075747371 0 0 0
1537 43 1 13.638107583297785 18.78987977681141 43.7199369876899 0 0 0
1538 43 1 13.977979197772964 17.533576132606658 44.43620530385463 0 0 0
7068 23 1 0.7626679932163773 22.92993967149409 45.000775961524155 1 0 0
3027 21 1 11.83937498301911 0.48042777428731853 31.105720878278206 0 0 1
1067 8 1 10.693940747745792 8.153494377381255 34.42181309657093 0 0 1
1526 12 1 9.350344306295337 12.058568051078977 32.71274945424846 0 0 0
4257 6 1 18.41499874168875 18.94979250946818 33.635250443514856 0 0 0
1303 10 1 3.8611819026446352 9.76388494389485 30.360635369570904 0 0 1
9277 62 1 0.8388734326527751 19.598546765482908 39.28975541249129 0 0 0
7070 23 1 2.2867323356434466 23.891121182705884 46.70809141981575 1 0 0
7236 52 1 4.316122457469135 25.774378064666507 43.728846297785665 0 -1 0
1749 43 1 4.827208128237519 14.06960397121879 32.209353932290014 0 0 0
1750 43 1 5.127758281708383 13.711167657185412 33.65435595415443 0 0 0
1751 43 1 6.216863351359834 14.568847599001174 34.12048332249743 0 0 0
1752 43 1 6.324919224380939 14.72713636996733 35.622838529379344 0 0 0
1832 59 1 11.066415474491198 18.183749103950294 35.35145267020941 0 0 0
1833 59 1 12.270666498283711 17.94842373179985 36.25551625723468 0 0 0
1834 59 1 12.510463113584839 19.165616873544337 37.21798047841002 0 0 0
1835 59 1 13.661119892650332 18.926205202517014 38.16402825526377 0 0 0
1836 59 1 13.957063334988623 19.962955976666223 39.23198762893952 0 0 0
1837 59 1 14.944888789606008 19.61982796190859 40.25960669972683 0 0 0
1838 59 1 15.400943733638975 20.859703888760396 41.02968701945138 0 0 0
1839 59 1 16.795725918713977 20.716285663480814 41.514442422148676 0 0 0
1840 59 1 16.869128212228105 19.976419720673476 42.850914734283336 0 0 0
8510 56 1 1.7716523634003423 10.374578172138687 40.36777368954672 0 0 0
8437 40 1 10.417889640086521 11.038334806059776 46.2186446047922 0 0 0
2353 16 1 8.219937164004927 20.851812029263925 32.92017401119403 0 0 1
8672 62 1 6.357323309703915 14.793673800592538 40.897445771607096 0 0 0
7464 5 1 10.200366260181799 2.179657063010221 45.95525410241811 0 0 0
8892 59 1 4.094213148358607 17.00985942844612 44.04203361807546 0 0 0
1908 59 1 9.18977354175744 16.443705026577945 32.7097389753223 0 0 0
1909 59 1 9.538514836637614 17.531183750401393 33.683616907317784 0 0 0
1910 59 1 10.735080530374194 17.01688648500688 34.4342632716347 0 0 0
1911 63 1 9.34976844191657 21.115873057914314 39.204831313782684 0 0 0
1912 63 1 10.778833583968728 21.056598122046367 39.742904458120805 0 0 0
1913 63 1 10.887745695000612 21.88989216506045 40.95961222470291 0 0 0
1914 63 1 12.275322346035027 22.17739056042583 41.58587233539247 0 0 0
1915 63 1 12.419619338044493 23.04114988676369 42.84505306185066 0 0 0
1916 63 1 13.836403721837137 23.143558797599056 43.40875332687813 0 0 0
1917 63 1 14.050296494182776 22.37802890881314 44.69865699018929 0 0 0
1918 63 1 15.409887115650974 22.254658970158165 45.39423615175217 0 0 0
8513 56 1 4.033484229796701 12.694235437263117 42.48235005959579 0 0 0
8888 59 1 1.3885541298218758 14.424445265916424 40.310885373662636 1 0 0
4409 38 1 13.14574634213238 19.292615877739554 32.77605419588373 0 0 0
3854 39 1 10.754014151767295 10.163234041113908 30.146548232880352 0 0 1
8132 56 1 5.515709627426147 9.167717586385118 44.55417839417794 0 0 0
3410 26 1 12.678648100460142 6.064429159782263 32.532156549512955 0 0 0
760 4 1 7.583080423263409 2.6460771768154685 30.257600526379704 0 0 0
1841 59 1 18.27711790384979 19.622434074553002 43.232646916147885 0 0 0
8129 56 1 3.158401764347138 6.841184036179962 42.4196419540745 0 0 0
2129 63 1 4.9154786366245595 18.693166428336642 33.84458376874252 0 0 0
2130 63 1 5.854976877599615 18.346713544780687 34.96551161754399 0 0 0
2131 63 1 6.428687521430203 19.63701833196461 35.52018717268432 0 0 0
2132 63 1 7.648097933971626 19.254438831024196 36.379482380748314 0 0 0
2133 63 1 7.851459292513268 20.066712883372013 37.64839134705882 0 0 0
2134 63 1 9.255586084201083 20.18262086163919 38.05576194106583 0 0 0
2135 17 1 12.893233067429682 23.736376174116334 37.831019986461946 0 0 0
2136 17 1 14.333593713170034 23.67204545136826 38.29157539047466 0 0 0
2137 17 1 14.41273712524724 24.291460477647217 39.637903469638374 0 0 0
2138 17 1 15.774454607564875 24.19229300400961 40.24715851742537 0 0 0
2139 17 1 15.909067810539762 25.387347294724805 41.20299315120431 0 0 0
2140 17 1 17.119570270391435 25.161958474025806 42.00465640503893 0 0 0
8509 56 1 1.3167761772440207 10.443467296358413 38.98224852516465 0 0 0
4038 46 1 17.629893734110812 17.46582922003771 38.364771358507795 0 0 0
1313 12 1 16.88150039958672 15.091384967663151 42.82086900616811 0 0 0
8424 40 1 1.6589183418944589 7.104519731407581 33.93442195275014 0 0 0
8678 62 1 10.744468429198971 15.493778462238762 46.19024839441194 0 0 0
2128 63 1 4.566057928173947 17.55495065282014 32.84185685442269 0 0 0
776 47 1 15.369932457878528 7.574463955062253 45.93015050603 0 0 0
5416 40 1 2.0296634541667364 5.63596367988839 47.03531361795058 1 0 0
2355 17 1 9.89619966241453 21.52869477045121 34.59588634361728 0 0 0
2356 17 1 11.308960026889373 21.985254577752883 34.86532433664361 0 0 0
2357 17 1 11.302564278285995 22.370364061769973 36.330844662953034 0 0 0
2358 17 1 12.545941695605975 23.287484185238508 36.4096532904174 0 0 0
232 3 1 17.158124785614078 1.9642802366425263 42.7481561626485 0 0 0
3863 31 1 17.373940483907326 13.990290698043195 32.4024607351697 0 0 0
2361 29 1 14.849998165170296 24.857409375233317 34.19641365427461 0 -1 0
2362 29 1 15.053182277941874 25.907627530556887 35.317495417765045 0 -1 0
2363 29 1 16.33337269614704 25.67150138467304 36.226627027181536 0 -1 0
2364 29 1 16.878543760601836 0.1477914165591522 37.118209498034155 0 0 0
8127 56 1 1.6233020808785228 6.030796597662207 40.598095976851816 1 0 0
8517 56 1 6.45411660740614 14.523937752650728 46.42741213043712 0 0 0
462 3 1 16.800712906403 3.177534331441809 46.348411709064635 0 0 0
4785 35 1 15.786201347051646 22.26533909917324 30.24103482868103 0 0 1
444 3 1 8.553284209140399 24.369934420794507 32.46468755720382 0 -1 0
2581 29 1 12.084195086291025 22.733713581751296 30.559865956289322 0 -1 0
8890 59 1 2.803402622981941 15.754219912539837 42.18682743437583 1 0 0
2583 20 1 17.353914418371613 0.9215097282855168 31.88552434495919 0 0 0
2807 30 1 14.72841961824951 2.4854304622018266 34.7729577326829 0 0 0
2808 30 1 15.651944358167256 3.5757031704226794 35.12732448931127 0 0 0
2809 30 1 16.062068947024223 3.4391054364877887 36.5136019479915 0 0 0
2810 30 1 17.113127197505843 4.460344098715179 36.899120089567695 0 0 0
1523 11 1 6.485799752560241 11.756062635253512 30.016560746367396 0 0 1
777 47 1 16.764335537924257 7.6598305966237445 46.500122805716856 0 0 0
8130 56 1 4.218552027476849 7.9160420444158985 42.79452750635427 0 0 0
9189 61 1 4.1542343277588305 16.913847441385002 37.908576855372814 0 0 0
1073 4 1 18.35620358322859 10.145459372563483 44.41589365091433 0 0 0
3030 30 1 14.167222077181478 2.812383995146219 33.40493043353251 0 0 0
8671 62 1 6.224665522417153 13.82053163574032 39.67634319420549 0 0 0
7453 5 1 2.72131389430733 24.793744657907975 35.87418940527623 0 -1 0
9193 61 1 7.342420813447354 18.91823735944302 41.192658588024955 0 0 0
2811 30 1 17.645951581103372 4.253639898342869 38.31202237895512 0 0 0
3189 26 1 15.65909442582861 7.531591527988059 34.50635749151665 0 0 0
3190 26 1 15.73188128616658 7.608423794646648 36.04318625174757 0 0 0
3191 26 1 17.13613844115909 7.906932893974904 36.52378171362405 0 0 0
3192 26 1 17.09246158862598 8.849739318604314 37.640837457329994 0 0 0
1524 12 1 7.6258194758316264 11.361113482518343 31.003624455964637 0 0 0
4786 35 1 16.3808977771359 22.023294565358675 31.59354031863768 0 0 1
7231 52 1 1.0227471132685537 23.893131954783502 38.916485599405156 1 -1 0
7692 1 1 4.236742114487039 3.3780359691586845 42.39134278124464 0 0 0
775 47 1 15.134230932254287 8.689548974176333 44.89276508910508 0 0 0
3412 26 1 14.306064954783988 7.0250324243866675 34.25507909791137 0 0 0
7237 52 1 5.391658187435087 0.1425577842169031 44.01764983469626 0 0 0
7695 1 1 5.910371546958306 4.421812156434241 45.85799028218217 0 0 0
8438 40 1 11.894173617780528 11.008942774218248 46.68631096947598 0 0 0
8434 40 1 8.873185444975206 11.26837134809678 43.39318490678246 0 0 0
3637 30 1 16.182747572859455 11.940726859087603 36.654733162481804 0 0 0
6253 42 1 2.3620383505325306 14.88904200919184 47.064571833385784 0 0 0
3862 31 1 17.633889113882045 13.199207600521326 31.081436778954274 0 0 0
8134 56 1 6.755229313167196 10.10837282363316 46.42635463030527 0 0 0
523 3 1 4.113960530351376 0.9225817757256449 30.454795767555474 0 0 0
1072 4 1 18.130987059219922 10.833011353214923 43.064220577567795 0 0 0
8670 62 1 4.832077348730538 13.78407866519728 38.969544656470696 0 0 0
8677 62 1 10.591153939321027 16.577217000681816 45.14234427068091 0 0 0
3859 30 1 14.76371042196914 11.20546972527104 34.726226568518534 0 0 0
3860 30 1 15.794379932795364 12.201419631449506 35.19614333371844 0 0 0
3193 26 1 18.51000899368528 9.174542304643255 38.210165776641375 0 0 0
460 3 1 15.161087707066343 4.150987677661831 44.747494568324676 0 0 0
8435 40 1 8.982899385930585 12.288643452118244 44.48971324045154 0 0 0
3416 29 1 17.569028743813977 9.96034265516363 32.03739333760528 0 0 0
2365 29 1 17.888070337367065 26.308711242045636 38.131063239417 0 -1 0
8895 59 1 6.905859521147174 18.907716476726883 45.92343748273035 0 0 0
9187 61 1 2.8121830611683 16.048153024741364 35.96470909792149 0 0 0
1304 10 1 3.5332579556125268 9.086948424456569 31.619646123449556 0 0 1
5031 64 1 0.9200626629992611 0.16027118680002522 44.78817799427988 1 0 0
9494 63 1 1.8635301797404769 20.246351555920565 33.64852523132305 0 0 0
4032 46 1 13.563792448342268 14.762876038863952 32.80316020244048 0 0 0
8891 59 1 3.8484971654054414 16.84282527831874 42.578030416489725 1 0 0
3034 22 1 17.526921541906248 5.3720365703977615 31.835859161094586 0 0 0
1748 43 1 3.571610952796975 13.425757716298326 31.58678601348694 0 0 0
9284 62 1 6.336808780153822 22.223523928803065 45.70846643759157 0 0 0
6250 42 1 0.47148771275256307 13.991916672337172 43.80255818154699 0 0 0
4030 46 1 12.096122200881714 13.844975064709026 30.87455248408072 0 0 0
7696 1 1 6.796503668588361 5.633889555075978 46.16555900704968 0 0 0
7234 52 1 2.8210199883976577 24.763456050216522 41.97782540009011 0 -1 0
5858 13 1 2.0178512892961824 10.258075802367186 45.27971372685842 1 0 0
4410 38 1 14.052365989227143 20.382731312397027 33.30131719376283 0 0 0
4411 38 1 14.562039278941821 20.123562190380383 34.75877560684185 0 0 0
4412 38 1 15.510851654440295 21.220198933879214 35.023699558985534 0 0 0
4413 38 1 15.89270318495293 21.1404121513237 36.48162942343697 0 0 0
4414 38 1 16.99670130170539 22.016188895477384 36.83539353293587 0 0 0
9507 63 1 10.702034644846034 24.42419868691568 45.94558796209823 0 0 0
7454 5 1 3.331325828827279 25.98909859342593 36.489080428078644 0 -1 0
234 3 1 18.643308915481338 0.8493079769018772 44.47251341814335 0 0 0
7898 9 1 0.600141147824569 1.3917756657023284 33.388831384688054 1 0 0
12 17 1 15.349140753912357 26.42685415527622 45.17754411855232 0 -1 0
9192 61 1 5.986924684956873 18.936911701380215 40.52294106939906 0 0 0
4033 46 1 14.093483695807569 16.084567622431567 33.38896569805065 0 0 0
5415 40 1 1.8909353408971663 5.611486506780101 45.55097508224846 1 0 0
9496 63 1 3.129161232311295 20.70395489256953 35.880629263399136 0 0 0
7899 9 1 1.4754184552584388 2.5222796508079464 33.85698557796729 1 0 0
7069 23 1 2.1461684276940525 23.55503559948813 45.201520491898656 1 0 0
9195 61 1 8.87620941165522 20.068489451513056 42.99621773223583 0 0 0
3026 21 1 10.819221962347857 0.682138650240954 29.975831346213443 0 0 1
9196 61 1 8.961180864736162 21.16880897792901 44.095738474156676 0 0 0
1919 63 1 15.447534922364484 21.138893704921564 46.30221896354925 0 0 0
1156 9 1 16.512990589562943 12.21904672069899 46.88056343312151 0 0 0
9499 63 1 4.336476439520928 22.5604060469489 39.197805722021926 0 0 0
2351 16 1 8.173732904075521 21.309911074760155 30.3255574177144 0 0 1
7911 9 1 10.245946445672509 7.7901227739182035 44.76613153579144 0 0 0
9497 63 1 3.171038785515781 21.2865865800101 37.37021140654415 0 0 0
3856 39 1 12.926182357806248 10.565066250953143 31.526371393864917 0 0 1
9506 63 1 10.576310819482275 25.598819049272596 45.08943496445795 0 0 0
3414 29 1 15.840388350488672 9.18370050528063 30.47511248425684 0 0 0
4039 46 1 18.653130513442868 18.520209898158047 38.74488353382778 0 0 0
2359 29 1 13.568165435767927 23.80897849084592 32.34328787630908 0 -1 0
4029 46 1 11.018267757689154 14.165132588233666 29.772342658829718 0 0 0
9502 63 1 7.338749341615744 23.498783195373004 41.587479036111816 0 0 0
8669 62 1 4.912474065182315 12.697751821721358 37.9405697390947 0 0 0
2360 29 1 13.563760815751136 24.968327802808055 33.382262078947896 0 -1 0
5417 40 1 3.065837578781178 6.769870159969433 47.21391757892671 0 0 0
9493 63 1 0.639266900225179 19.660233375657878 33.05932286921513 1 0 0
9505 63 1 9.150268460284275 25.62915351760729 44.539898347474754 0 0 0
7693 1 1 4.440383170730998 3.3875627961456414 43.901765773569224 0 0 0
3029 30 1 13.296678866967815 1.59515695132657 32.8901891255402 0 0 0
1541 43 1 16.9011859092157 16.429859031881254 46.716365146992516 0 0 0
7688 1 1 1.0445808726725305 1.5107815536929627 38.8595109188878 0 0 0
983 47 1 3.902923338049104 5.8704568062789635 30.462474762422055 0 0 0
8668 62 1 3.8163862039161702 12.678938801958596 36.899603772831874 0 0 0
8666 62 1 2.307207966423284 11.670612306348678 35.338505642594164 0 0 0
4788 35 1 18.063995078859904 22.893065500558798 33.392528036569075 0 0 1
4034 46 1 15.14943638689187 15.737415112899726 34.34990750261129 0 0 0
984 47 1 3.5070404644353896 4.957896883081053 31.6573050669342 0 0 0
13 17 1 15.260922724774687 25.717053895756152 46.487352251264554 0 -1 0
3638 30 1 17.23958830260705 12.97253076139912 36.91648934037848 0 0 0
3194 26 1 18.278166242970876 9.68943175693669 39.652181448416314 0 0 0
8508 56 1 0.37322010907907494 9.287121805846189 38.70596297012777 0 0 0
446 3 1 10.056158882343782 25.412696603513293 34.24810990843807 0 -1 0
4031 46 1 12.866568895757418 14.989712465622885 31.447691395256136 0 0 0
1539 43 1 15.322609850733697 17.635092854714546 45.123485873937184 0 0 0
9504 63 1 9.032501151970369 24.812006424397374 43.24054397108607 0 0 0
2806 20 1 16.36429458129567 26.6452392046012 31.539099458613872 0 -1 0
8516 56 1 5.695240750938987 13.332960346012166 45.91773163018769 0 0 0
4415 38 1 17.564671310128627 21.92107743935031 38.253932713921145 0 0 0
7455 5 1 4.073305192571066 25.791637244506404 37.82293821278866 0 -1 0
7456 5 1 4.704415891662606 0.41546533839626 38.309041199701774 0 0 0
7457 5 1 5.792997258919914 0.09638898673279979 39.333658031305134 0 0 0
7458 5 1 6.20811545860258 1.4771624479360654 39.880949074369724 0 0 0
7459 5 1 7.155641103493833 1.250848877832408 41.09802625649424 0 0 0
7460 5 1 7.570113963567694 2.3966654339035642 42.01309079399291 0 0 0
7461 5 1 8.60881838754134 2.150234569855899 43.08881542772328 0 0 0
7462 5 1 8.831347298452215 3.2806163716221026 44.087514998910535 0 0 0
9190 61 1 4.365509039612363 17.965636599185967 38.89014664854382 0 0 0
7900 9 1 2.092834071639633 2.2185637711379917 35.2484756219844 0 0 0
9280 62 1 3.2786128884736576 20.200857811222477 42.36532788336295 0 0 0
7235 52 1 4.029207895255755 25.691554792697264 42.313506123127276 0 -1 0
7463 5 1 10.128867170845282 3.24292957692236 44.82278375609014 0 0 0
9186 61 1 1.8388019264976028 16.365280053903152 34.877828472971764 0 0 0
8676 62 1 9.18471339401441 16.647672781838736 44.532159719996606 0 0 0
9498 63 1 4.500238773566055 21.580183248713684 37.99850167846334 0 0 0
7233 52 1 2.3964469128056654 24.813287626021925 40.59396552468133 0 -1 0
9188 61 1 3.0621740136457305 17.24617537251777 36.88604984564097 0 0 0
6693 48 1 2.073467099452225 19.700841720218875 46.856440593525605 1 0 0
9199 61 1 11.61384589914859 20.29915044727936 46.741255997230766 0 0 0
7238 52 1 5.6130582090992 0.14652023262656333 45.50765373904726 0 0 0
8514 56 1 4.386440375584162 12.554453405292353 44.002228327745975 0 0 0
8665 62 1 1.8855289425882342 10.488807417414991 34.50250367530893 0 0 0
9281 62 1 4.087881542301341 21.41055482796901 42.622178308510136 0 0 0
7913 9 1 11.977400705297391 6.6749673490025785 46.324554150406435 0 0 0
7691 1 1 3.034953877640126 2.4530707620020236 42.10977202950945 0 0 0
5033 64 1 2.4314293451358826 1.0854402506553384 46.63180905731102 0 0 0
443 53 1 7.459938956872129 24.64180697050185 31.362275911715603 0 -1 1
9197 61 1 10.292150067253766 21.248714318475752 44.837027173625046 0 0 0
4035 46 1 15.698207380563586 16.97954948538244 35.085658563117164 0 0 0
8667 62 1 3.4827990355394944 11.337956780436514 36.210847637359386 0 0 0
7902 9 1 3.38177298901245 3.6000637450986037 36.774124869393646 0 0 0
7903 9 1 4.556946807461419 4.479384910579274 37.14028409349191 0 0 0
7904 9 1 4.726307144561577 4.6031408668450196 38.70263329178309 0 0 0
7905 9 1 6.160376588741995 4.824756608048144 39.26593962311848 0 0 0
7906 9 1 6.2778200433216655 6.025409628148746 40.198237195291526 0 0 0
7907 9 1 7.392627879327149 5.890674008873044 41.197767621194934 0 0 0
7908 9 1 7.543814667526891 6.915836699337298 42.26487222188045 0 0 0