LAMMPS data file via write_data, version 29 Oct 2020, timestep = 32000000

10752 atoms
2 atom types
10752 bonds
3 bond types
10752 angles
3 angle types
10752 dihedrals
3 dihedral types

-1.4019591925125496e-01 3.1008115919238300e+01 xlo xhi
-1.2113307625790526e-01 2.6791853076229280e+01 ylo yhi
 4.8975216180171515e+00 2.7810183838115591e+02 zlo zhi

Masses

1 14
2 15

Pair Coeffs # lj/cut/omp

1 0.0914 3.95
2 0.1947 3.75

Bond Coeffs # harmonic/omp

1 449.5 1.53
2 449.5 1.53
3 449.5 1.53

Angle Coeffs # harmonic/omp

1 62.0967 114
2 62.0967 114
3 62.0967 114

Dihedral Coeffs # opls/omp

1 1.411 -0.271 3.145 0
2 1.411 -0.271 3.145 0
3 1.411 -0.271 3.145 0

Atoms # molecular

1            1            1      10.2793       10.978      6.02303
2            1            1      11.1874      11.1021      7.24757
3            1            1      10.6322      10.4699      8.48594
4            1            1      11.3064      11.1281      9.64917
5            1            1      11.0154      10.2961      10.9391
6            1            1      11.6029      10.9421       12.201
7            1            1      10.9477      10.5765      13.5513
8            1            1      11.7123      11.1597      14.7759
9            1            1      10.9629      11.2645      16.1065
10            1            1      11.7553      11.3067      17.3861
11            1            1      10.6828       11.482      18.5022
12            1            1      11.2487      11.8038      19.8726
13            1            1      10.2977      11.8503      21.0488
14            1            1      10.8695      12.3056      22.4129
15            1            1      9.89547      12.2367      23.6107
16            1            1      10.4171      12.3443      25.0364
17            1            1      9.54897      12.9933      26.1035
18            1            1      10.1783      12.9447      27.5065
19            1            1      9.68532      13.9701      28.4588
20            1            1       10.129      13.7429      29.9283
21            1            1      9.56919       14.734      30.8824
22            1            1      9.85789      14.3909      32.3227
23            1            1      8.86693      15.0943      33.2777
24            1            1      9.34583      14.8381      34.7047
25            1            1      8.72244      15.8096      35.7122
26            1            1      9.11098      15.7596      37.1718
27            1            1      8.39089      16.6224      38.2103
28            1            1      8.82351      16.3587      39.6691
29            1            1      7.60653      16.6269      40.5791
30            1            1      8.04573       16.495      42.0733
31            1            1       7.1969      17.1896      43.1365
32            1            1      7.80809      17.1867      44.5127
33            1            1      6.92781      18.0508      45.4192
34            1            1      7.54841       18.419       46.768
35            1            1      6.56467      18.6258      47.9033
36            1            1      7.20064      18.8851      49.2561
37            1            1      6.30868      19.0711      50.5104
38            1            1      6.99376      19.5907      51.7131
39            1            1       5.9767      19.8333      52.8181
40            1            1      6.55164      20.3718      54.1742
41            1            1      5.52341      20.6844      55.3311
42            1            1      6.17141      21.2153      56.5972
43            1            1         5.19      21.4892      57.7565
44            1            1      5.85641      21.9058      58.9813
45            1            1      4.96555       22.253      60.1351
46            1            1      5.55203      22.3204      61.5724
47            1            1      4.44322      22.8929      62.4861
48            1            1      5.05487      23.1096      63.8045
49            1            1      4.21079      23.8369      64.8412
50            1            1      4.73355      23.8805       66.288
51            1            1      3.88542      24.5999      67.3511
52            1            1      4.58759      24.8224      68.6528
53            1            1      3.57128      25.1432      69.6716
54            1            1      4.11153      25.7401      70.9355
55            1            1      3.08019      25.7465      72.0432
56            1            1      3.70727      26.0922      73.4003
57            1            1      2.65229      26.2008      74.5221
58            1            1      3.27125   -0.0319451      75.7054
59            1            1      2.31083     0.123844      76.8528
60            1            1      2.95579     0.484933      78.1809
61            1            1      2.05503     0.734182      79.4069
62            1            1      2.70458      1.16616      80.6863
63            1            1      1.63807      1.43549      81.7427
64            1            1      2.16445       2.0078      83.1013
65            1            1      1.03081      2.19482      84.0634
66            1            1      1.68579      2.58269      85.4062
67            1            1     0.808874      3.06589      86.5588
68            1            1      1.52186      3.54096        87.79
69            1            1      0.47206       3.5836      88.9143
70            1            1     0.840599      4.16507      90.3279
71            1            1      30.8553      4.37512      91.3123
72            1            1     0.355821      4.91558      92.6265
73            1            1      30.5013       5.3075      93.7601
74            1            1     0.107781      5.73961       95.019
75            1            1      30.2914       6.1696      96.1492
76            1            1      31.0453      6.47647      97.4635
77            1            1      30.1746      7.18288      98.4949
78            1            1       30.598      6.87155      99.9361
79             1             1       29.8563       7.60151       101.002
80             1             1       30.3304       7.47341       102.402
81             1             1       29.4151       8.19398       103.412
82             1             1        29.745       8.14812       104.889
83             1             1       28.7407       8.64343       105.914
84             1             1       29.4764       8.68303        107.25
85             1             1       28.5875       9.30588       108.326
86             1             1       29.1706        9.3524       109.727
87             1             1       28.3182       10.0263       110.772
88             1             1       28.8263       9.75148       112.157
89             1             1       27.8817       10.3813       113.204
90             1             1       28.3207       10.1679       114.651
91             1             1        27.308       10.2926       115.813
92             1             1       27.9459       10.7775       117.095
93             1             1       26.8466       11.1029       118.105
94             1             1       27.3641       11.4932       119.448
95             1             1       26.2596        11.755       120.548
96             1             1       26.8522       12.3921       121.797
97             1             1        25.856       12.5958       122.948
98             1             1       26.3538       13.3132       124.224
99             1             1         25.32       13.5189       125.322
100             1             1       25.8895       14.0991       126.702
101             1             1       24.9666       14.2232       127.897
102             1             1       25.7174       14.6806       129.051
103             1             1       24.7157       14.8667       130.214
104             1             1       25.3615       14.9987       131.571
105             1             1       24.4186       15.3835       132.678
106             1             1       25.1923       15.5433       133.957
107             1             1       24.2667       15.7306       135.178
108             1             1       24.9005       15.7027        136.53
109             1             1       23.9337       16.2416       137.607
110             1             1       24.5839         16.53       138.968
111             1             1       23.5948       16.5632       140.107
112             1             1       24.1901       17.1031       141.398
113             1             1       23.1975       17.2441       142.608
114             1             1       23.9463       17.2778        143.97
115             1             1       23.2106       17.9377        145.19
116             1             1       23.7982       17.6108        146.56
117             1             1        23.048       18.2795       147.714
118             1             1       23.7062       18.1838       149.093
119             1             1       22.7086       18.3887       150.274
120             1             1       23.6075       18.3086       151.474
121             1             1       22.9543       17.8038        152.79
122             1             1       23.7659       17.6877       154.087
123             1             1       22.8346       17.5141       155.247
124             1             1       23.6567       17.5798       156.463
125             1             1       22.9258       17.3063       157.756
126             1             1       23.7597       17.3838       159.051
127             1             1       23.0849       16.7975       160.321
128             1             1       24.0859       16.9068        161.46
129             1             1       23.6781       16.0881       162.685
130             1             1       24.4509       16.4265       163.937
131             1             1       24.4328       15.4017       165.036
132             1             1        24.949        15.886       166.397
133             1             1       24.6352       14.8636       167.475
134             1             1        25.108       15.1984       168.908
135             1             1       24.7263       14.1363       169.987
136             1             1       25.6197       14.2635       171.273
137             1             1       25.0536       13.4638       172.476
138             1             1       25.9251       13.6037       173.759
139             1             1       25.4757       12.7585       174.946
140             1             1       26.2256       12.9142       176.268
141             1             1       25.6612       12.1293       177.483
142             1             1       26.7436       12.2396       178.548
143             1             1       26.4668       11.5096       179.808
144             1             1       27.5224       11.3307       180.863
145             1             1       27.0401       11.0486       182.289
146             1             1       28.1533        10.466        183.23
147             1             1       27.4964       10.1951       184.585
148             1             1       28.5448       9.98061        185.69
149             1             1       27.8405       9.70934       187.013
150             1             1       28.8856       9.34747       188.115
151             1             1       28.2951       8.90095       189.446
152             1             1        29.226       8.35082       190.564
153             1             1       28.6049       7.92286       191.871
154             1             1       29.7242       7.44081       192.811
155             1             1       29.3742       7.35587       194.227
156             1             1        30.457       7.28357       195.336
157             1             1       29.7767       6.95256       196.648
158             1             1       30.6619       6.39753       197.716
159             1             1        29.917       6.04701       198.982
160             1             1       30.8272       5.88985       200.241
161             1             1        30.193       5.39768       201.591
162             1             1      0.214283        5.2082       202.615
163             1             1       30.8557       4.43361       203.827
164             1             1      0.653621       4.35895       205.018
165             1             1     0.0120627       3.97618       206.316
166             1             1       1.12411         3.487       207.284
167             1             1      0.614295       3.41759       208.696
168             1             1       1.69715       2.96825        209.66
169             1             1       1.12284       2.83134       211.046
170             1             1       1.97518       1.93182       211.976
171             1             1       1.53367       1.91362       213.454
172             1             1        2.4498       1.12094       214.367
173             1             1       2.03242       1.43906       215.783
174             1             1       2.66519      0.516793       216.796
175             1             1       2.17584      0.599107       218.275
176             1             1       3.15925     -0.205031        219.12
177             1             1       2.72573    -0.0101922       220.594
178             1             1       3.61123       26.1403       221.599
179             1             1       2.79383       26.1139       222.955
180             1             1       3.46452       25.4301        224.11
181             1             1        2.7398       25.2802        225.46
182             1             1       3.69917       25.4683       226.584
183             1             1       3.22019       24.7431        227.85
184             1             1       4.00059        24.956       229.101
185             1             1       3.78723       23.8473       230.179
186             1             1       4.33295         24.17       231.582
187             1             1       3.87726       23.2402       232.765
188             1             1       4.54249       23.5203        234.09
189             1             1       4.22464       22.5237       235.167
190             1             1       4.83521       22.8901       236.573
191             1             1        4.4503       21.7021       237.501
192             1             1       5.07141       21.9245       238.912
193             1             1        4.4657       21.0938       240.074
194             1             1       5.36204       21.1934       241.289
195             1             1       4.87082       20.4526        242.55
196             1             1       5.64715       20.4509       243.857
197             1             1       5.00932       19.6571       244.954
198             1             1       5.98549       19.7907       246.124
199             1             1       5.73032       18.8039       247.241
200             1             1       6.37552       19.1879       248.603
201             1             1       5.99107       18.2488       249.818
202             1             1       7.02873       18.2325       250.929
203             1             1        6.4695       17.4764        252.09
204             1             1       7.46597       17.4324       253.249
205             1             1       6.84122       16.8154       254.526
206             1             1       7.71907       16.8898       255.816
207             1             1       7.22642       16.2267       257.073
208             1             1        8.0221       16.3676       258.351
209             1             1       7.48488       15.4857       259.442
210             1             1       8.37115       15.5704       260.698
211             1             1       8.15203       14.5672       261.832
212             1             1       8.92614       14.9285       263.154
213             1             1       8.49003       14.1793       264.417
214             1             1       9.38719       14.4712       265.591
215             1             1       8.98464       13.5812        266.77
216             1             1        9.7855       13.8256       268.105
217             1             1        9.4948       12.7658       269.184
218             1             1       10.1013       13.0044        270.59
219             1             1       9.87916       11.9008       271.618
220             1             1        10.783       12.0837       272.836
221             1             1       10.1466        11.516       274.111
222             1             1       10.8743       11.9402       275.396
223             1             1       10.1107       11.3198       276.583
224             1             1       10.8815       11.5281       277.903
225             2             1       14.5507       14.5731       275.487
226             2             1       14.0531       13.9264       276.771
227             2             1       15.0241       14.0523       277.921
228             2             1       14.4323       13.7162       6.05045
229             2             1       15.3657       13.6771       7.27607
230             2             1       14.5751       13.3707       8.54887
231             2             1       15.4905       13.2492       9.75764
232             2             1        14.731       13.1779       11.0898
233             2             1       15.6471       12.8901       12.3072
234             2             1       14.7692       12.6925       13.5249
235             2             1       15.6112       12.5382       14.8037
236             2             1       14.7803       12.7397       16.0557
237             2             1       15.4729       13.0259       17.3285
238             2             1       14.5687       13.0697       18.5788
239             2             1       15.2486       13.6629         19.81
240             2             1       14.2975       13.7483       20.9779
241             2             1        14.989       14.3372        22.213
242             2             1       14.0215       14.5451       23.4132
243             2             1        14.719       14.9404       24.7229
244             2             1       13.6734       15.0087       25.8223
245             2             1       14.2977         15.62       27.0287
246             2             1       13.3303        15.835        28.131
247             2             1       13.9668       16.1652       29.4626
248             2             1       12.9629       16.5265       30.5926
249             2             1       13.5866       17.0442       31.8473
250             2             1       12.7493       16.9082       33.1312
251             2             1       13.1849       17.6297       34.3732
252             2             1       12.2398       17.3727       35.5502
253             2             1       12.8256       18.0263       36.7921
254             2             1       12.0817       17.7189       38.0666
255             2             1       12.5005       18.5709       39.2765
256             2             1       11.6764       18.3836       40.5196
257             2             1       12.2957       19.0198       41.7512
258             2             1       11.4351       18.9048       43.0022
259             2             1        11.893        19.625       44.2548
260             2             1       10.8984       19.8081       45.3749
261             2             1       11.5142       20.4275       46.6224
262             2             1       10.5396       20.6238       47.8246
263             2             1       11.1576       20.9912       49.1836
264             2             1       10.2383       21.3927       50.3167
265             2             1       10.9698       21.8367       51.5048
266             2             1       9.97259       22.1058       52.6168
267             2             1       10.4764       22.5941       53.9987
268             2             1       9.51909       22.7837       55.1951
269             2             1       10.0171       23.5767       56.3946
270             2             1       9.02212       23.4849       57.5259
271             2             1       9.50871       24.3667       58.7302
272             2             1       8.56536       24.5576       59.8816
273             2             1       9.26209       25.0502       61.1709
274             2             1       8.39549       24.9751       62.3749
275             2             1       9.16358       25.3162       63.6169
276             2             1       8.11826       25.6521       64.7383
277             2             1       8.77143        26.146       66.0119
278             2             1       7.91357       26.4604       67.1809
279             2             1       8.56917   -0.00539875        68.508
280             2             1       7.46869      0.285539       69.5608
281             2             1       8.01466      0.809308       70.9139
282             2             1       6.96101      0.878565         72.03
283             2             1       7.44394       1.58993       73.3223
284             2             1       6.65033       1.38113       74.5617
285             2             1       7.21598       2.12722        75.752
286             2             1       6.45414       1.89806        77.032
287             2             1       6.92745         2.709        78.186
288             2             1       6.09825       2.45111       79.4125
289             2             1       6.67093       3.19112         80.64
290             2             1       5.75759       3.17543       81.8733
291             2             1       6.26105       3.91849       83.0724
292             2             1        5.1347       4.13144       84.0765
293             2             1       5.65222       4.73519       85.3845
294             2             1       4.60901       4.84569       86.4547
295             2             1       5.28273        5.1795       87.8052
296             2             1       4.22399       5.62669       88.8406
297             2             1       4.72713       5.78882       90.2256
298             2             1       3.78975       6.33673       91.3115
299             2             1       4.47412       6.35834       92.6613
300             2             1       3.87447       7.27001       93.6831
301             2             1       4.12918       6.89672       95.1526
302             2             1       3.40538        7.8434       96.1183
303             2             1        3.9569       7.75834       97.5123
304             2             1       2.98513       8.45697       98.4472
305             2             1       3.42627       8.44706       99.8855
306             2             1       2.36988        8.9305       100.904
307             2             1       3.05172       9.30908       102.182
308             2             1        2.1133       9.56275       103.356
309             2             1       2.72173        10.055       104.658
310             2             1       1.77608       10.3434        105.83
311             2             1       2.41505       10.8222       107.154
312             2             1       1.45836        10.902       108.385
313             2             1       2.06451       11.4418       109.716
314             2             1       1.13604       11.4483       110.937
315             2             1       1.51766       12.2552       112.212
316             2             1      0.546664       12.2106       113.425
317             2             1       1.09358       12.6415       114.748
318             2             1     0.0888746       12.8359       115.903
319             2             1      0.701492       13.2474       117.241
320             2             1       30.7379       13.7138       118.195
321             2             1     0.0568399       13.9874       119.632
322             2             1       30.2009       14.4762       120.694
323             2             1       30.8086       14.6233       122.074
324             2             1         29.92       14.9607       123.275
325             2             1       30.6047       15.0187       124.655
326             2             1       29.6543       15.5146       125.726
327             2             1       30.2572       15.6861       127.134
328             2             1       29.2053        16.231       128.121
329             2             1       29.7284       16.2999       129.547
330             2             1       28.6336       16.8563       130.426
331             2             1       29.1643        16.988       131.811
332             2             1       28.2594       17.5692       132.884
333             2             1       28.9219       17.5022         134.3
334             2             1       28.1224        18.067       135.398
335             2             1       28.7378       18.0931        136.76
336             2             1       27.9976       18.7323       137.885
337             2             1       28.6085       18.7706       139.265
338             2             1       27.5478       19.2554       140.258
339             2             1       28.0697       19.2371       141.722
340             2             1       27.1431       19.9837       142.711
341             2             1       27.5785       19.7758       144.172
342             2             1       26.5818        20.201       145.256
343             2             1       27.0133       19.8059       146.696
344             2             1       26.4325       20.5195       147.898
345             2             1       27.1155       20.1525       149.201
346             2             1       26.5195        20.874       150.369
347             2             1       27.1838       20.3968       151.667
348             2             1       26.3827       20.7748       152.919
349             2             1       27.1396       20.3387       154.145
350             2             1       26.4367       20.4523       155.481
351             2             1       27.2245       19.6548       156.534
352             2             1       26.7178       19.7613       157.992
353             2             1       27.7468       19.1462       158.994
354             2             1       27.1067       19.1334        160.33
355             2             1       28.1743        18.839       161.398
356             2             1        27.726       18.3397       162.763
357             2             1        28.837       18.0672       163.779
358             2             1       28.1864       17.6086       165.062
359             2             1       29.0492       17.6443       166.268
360             2             1       28.4588       16.9679       167.495
361             2             1       29.2707       17.0716       168.774
362             2             1       28.6327       16.3899       169.935
363             2             1       29.6319       16.1264       171.037
364             2             1       28.9482       15.8159       172.349
365             2             1       30.0023       15.3758       173.455
366             2             1       29.4483       15.2438       174.891
367             2             1       30.4574       14.8543       175.952
368             2             1       29.8379       14.5077       177.349
369             2             1      -0.16713       14.2034       178.349
370             2             1       30.5935       13.5675        179.65
371             2             1      0.604435       13.4118       180.671
372             2             1      0.169819       12.8403       181.988
373             2             1       1.16519        12.866       183.185
374             2             1      0.512607       12.2763       184.423
375             2             1       1.46687       12.3953       185.612
376             2             1      0.864002       11.6753       186.766
377             2             1       1.75717       11.7698       187.989
378             2             1       1.30974       10.6026        188.95
379             2             1       2.03387       10.7367       190.273
380             2             1       1.39781        10.035       191.421
381             2             1       2.37937       9.97095       192.564
382             2             1        1.8319        9.6102       193.906
383             2             1       2.91589       9.62887        194.92
384             2             1       2.33391       9.17919       196.281
385             2             1       3.35934       8.98055       197.415
386             2             1       2.77719       8.36665       198.704
387             2             1       3.88201       7.84409       199.647
388             2             1       3.33058       7.37174       200.973
389             2             1       4.44724       7.21335       202.017
390             2             1       3.96187       6.70361       203.345
391             2             1       4.87428       6.60354       204.634
392             2             1       4.15114       6.11822       205.927
393             2             1         5.027       6.17631       207.183
394             2             1       4.43112       5.51712       208.445
395             2             1       5.36206        5.2961       209.624
396             2             1       4.77946       4.79138       210.908
397             2             1         5.805       4.62158       212.031
398             2             1       5.19503        3.9086       213.206
399             2             1       6.25916       3.81373       214.307
400             2             1       5.70425       2.97437       215.497
401             2             1       6.72236       2.91698       216.621
402             2             1       6.13346        2.1686       217.785