LAMMPS data file via write_data, version 23 Jun 2022, timestep = 1000

8487 atoms
2 atom types
8471 bonds
3 bond types
8455 angles
3 angle types
8439 dihedrals
3 dihedral types

0 36.89775039 xlo xhi
0 26.67072 ylo yhi
0 236.7516044 zlo zhi
0 7.448720975 0 xy xz yz

Masses

1 14
2 15

Pair Coeffs # lj/cut/omp

1 0.0914 3.95
2 0.1947 3.75

Bond Coeffs # harmonic/omp

1 449.5 1.53
2 449.5 1.53
3 449.5 1.53

Angle Coeffs # harmonic/omp

1 62.0967 114
2 62.0967 114
3 62.0967 114

Dihedral Coeffs # opls/omp

1 1.411 -0.271 3.145 0
2 1.411 -0.271 3.145 0
3 1.411 -0.271 3.145 0

Atoms # molecular

1 49 1 7.343061365915776 1.8029357251001692 7.7516371859286 0 0 0
2 49 1 8.446279976880756 1.1901495958033566 8.724177838148014 0 0 0
3 49 1 8.829943071541944 1.992413565849251 9.94108747109171 0 0 0
4 49 1 9.93541267685326 1.2680318409091098 10.73392653889321 0 0 0
5 49 1 10.438304843842117 2.0000153473472784 12.026767863009024 0 0 0
6 49 1 11.217211866323078 1.136319662768896 12.97109538031806 0 0 0
7 49 1 11.37103634231148 1.790425372917641 14.35798014103229 0 0 0
8 49 1 12.543419389022649 1.2068539565477814 15.207105928114949 0 0 0
9 49 1 12.600753946526126 1.6250646680397878 16.67481300769816 0 0 0
10 49 1 13.891038794495687 1.1884314502263071 17.342761589424033 0 0 0
11 49 1 14.043349939786824 1.6426555091014703 18.819804910609236 0 0 0
12 49 1 15.379119380762624 1.2702285552298611 19.372962149832176 0 0 0
13 49 1 15.63988625557039 1.788907275867043 20.74673328469449 0 0 0
14 49 1 16.744894534220457 1.1661137074337053 21.575723081073964 0 0 0
1663 9 1 7.616456454405149 21.57741918964099 0.5129645674140415 0 0 0
8214 63 1 6.288153422176144 23.8193084388823 20.845798855605896 0 0 0
218 49 1 2.668569703461178 0.832498055804466 0.12468337183248801 0 0 0
219 49 1 2.867774485062607 1.2485907248391626 1.5580937558355274 0 0 0
220 49 1 4.225727645003039 0.8881048551342892 2.145098766312697 0 0 0
221 49 1 4.503897765132938 1.4935400746735605 3.5868835698984527 0 0 0
222 49 1 5.632867856726209 0.8194441783314638 4.286849348530182 0 0 0
223 49 1 5.87440175792057 1.5302546014104343 5.660398082090235 0 0 0
224 49 1 7.130372463780974 1.1071279338258408 6.400421595738376 0 0 0
262 3 1 10.784905319209894 3.300344786609255 6.0861233492693305 0 0 0
263 3 1 12.179689901064044 3.3763144174583837 6.666598069203832 0 0 0
264 3 1 12.241529736274142 3.3029447743863276 8.171190078790085 0 0 0
265 3 1 13.668263840172274 3.2772091771493637 8.80371599541358 0 0 0
266 3 1 13.47629402965282 3.328734616075873 10.371829975590009 0 0 0
267 3 1 14.794603145368924 3.3759259003746553 11.13102317942832 0 0 0
268 3 1 14.657510741486767 3.4847649052582312 12.600630741933145 0 0 0
269 3 1 15.979901788407162 3.3212960478908227 13.328990821556173 0 0 0
270 3 1 15.963251145087215 3.4142252497220755 14.888075868730295 0 0 0
271 3 1 17.427688359740138 3.4922717527677984 15.422056902261467 0 0 0
272 3 1 17.463034686533756 3.5732003106221963 16.966782391868463 0 0 0
4122 17 1 12.304861829538822 22.877210526153405 0.47893262146059284 0 0 0
273 3 1 18.868150494907226 3.4911511421681847 17.631205317563865 0 0 0
294 3 1 7.70080797046164 3.116290584672798 0.5177915262733592 0 0 0
295 3 1 7.811588568056759 3.228036971303986 1.9766635583198666 0 0 0
296 3 1 9.206617199410765 3.4699556358429033 2.6068845685879545 0 0 0
297 3 1 9.181560077633344 3.4567675850935125 4.143885140244443 0 0 0
298 3 1 10.482913302072049 3.9222427469987533 4.693616332896638 0 0 0
299 24 1 7.478467769560576 5.973898267818809 8.453085348279348 0 0 0
300 24 1 8.881543933572502 5.623622869860092 8.95085869030694 0 0 0
301 24 1 8.924447378366425 6.025494373276649 10.421431621186347 0 0 0
302 24 1 10.171073145615413 5.673990674305826 11.221621404910188 0 0 0
303 24 1 10.199790483257898 5.98219049133757 12.694035589717839 0 0 0
304 24 1 11.350414032577355 5.438166006640235 13.489718925158417 0 0 0
305 24 1 11.47830987284873 5.968161118898648 14.951077614595416 0 0 0
306 24 1 12.663610708999476 5.352889567030185 15.68595694051349 0 0 0
307 24 1 12.732359316133454 5.830573357607904 17.16792894715604 0 0 0
308 24 1 14.138498672191107 5.676780828522967 17.753953456310764 0 0 0
309 24 1 14.1975724374712 5.975097186374709 19.23116708184255 0 0 0
310 24 1 15.619931440349406 5.659359669707585 19.846321039523943 0 0 0
311 24 1 15.706890325471484 5.7484514775157605 21.37119684353792 0 0 0
312 24 1 17.057199609225947 5.492621524669985 22.0753833970301 0 0 0
313 24 1 16.94914895682775 5.730757080096319 23.57667102453164 0 0 0
8213 63 1 5.909795439549115 23.04693739689205 19.55923834605928 0 0 0
516 24 1 3.0151077616836597 5.169969705106104 0.5333620056710647 0 0 0
517 24 1 3.1655543178453716 5.70546873300152 1.980282130635003 0 0 0
518 24 1 4.487352310035824 5.234748651591144 2.6172181102051972 0 0 0
519 24 1 4.5316236928094735 5.3630498608755675 4.155432127846679 0 0 0
520 24 1 5.877800693996851 5.1075092253492125 4.859170685634308 0 0 0
521 24 1 5.9180068751039965 5.4682308449642765 6.372720394287513 0 0 0
522 24 1 7.300424208450981 5.360946104928746 7.041729893145477 0 0 0
523 6 1 10.761018405291564 7.931955635787984 6.420949755946314 0 0 0
524 6 1 12.03640403479331 8.371656488077805 7.13976408479037 0 0 0
525 6 1 12.216216751030881 7.743363733779091 8.496224284090836 0 0 0
526 6 1 13.477962863210042 8.258685004823166 9.230439598825146 0 0 0
527 6 1 13.647845115190332 7.840498039131823 10.70730538395449 0 0 0
528 6 1 14.758243695281994 8.463430001274455 11.601169054750734 0 0 0
529 6 1 14.973080020834967 7.7516081201434845 12.926278942201698 0 0 0
530 6 1 16.202769777502247 8.267874711479223 13.650079034995633 0 0 0
531 6 1 16.4884109594734 7.534293623600579 14.960302592152384 0 0 0
532 6 1 17.557895402064062 8.216763690686866 15.745003141950162 0 0 0
533 6 1 17.781587934472523 7.635755972929947 17.106017910106946 0 0 0
7079 7 1 0.16843640824071524 12.518407425419111 2.5060213258958246 1 0 0
3563 26 1 12.48044941061991 14.352309920424732 0.24981187826860501 0 0 0
742 6 1 7.830648850150078 8.036577454673399 0.6114099961623878 0 0 0
743 6 1 8.202949771409408 7.503105553868845 1.9788489920532364 0 0 0
744 6 1 9.384544269566494 8.14137321808991 2.626332866747671 0 0 0
745 6 1 9.499259990583049 7.675756104589461 4.081230516648418 0 0 0
746 6 1 10.645908103138606 8.270779490010478 4.933509203525061 0 0 0
747 7 1 7.6806749860923755 10.534898248115544 8.218646532814613 0 0 0
748 7 1 8.579490946735147 9.767935734268189 9.239233397502966 0 0 0
749 7 1 9.271750121016051 10.489469561372319 10.386344995132749 0 0 0
750 7 1 9.887611630170985 9.68620976137699 11.519381432101373 0 0 0
751 7 1 10.659225679836878 10.44896900161329 12.640966529219229 0 0 0
752 7 1 11.538032842157634 9.60625858530374 13.610974200251842 0 0 0
753 7 1 12.020387055016924 10.359233904446917 14.802179457277877 0 0 0
754 7 1 13.044383629787315 9.57931734471393 15.63301700085261 0 0 0
755 7 1 13.534761936933888 10.289917623982582 16.905181899104313 0 0 0
756 7 1 14.29714062266424 9.54331179135863 18.028101909403865 0 0 0
757 7 1 14.742439354778025 10.319265202127694 19.240010363832024 0 0 0
758 7 1 15.61995560560285 9.608557137164395 20.244768693036836 0 0 0
759 7 1 15.90778051097788 10.270109838356811 21.595100610109192 0 0 0
760 7 1 16.920360705498524 9.568140484692677 22.474364100207673 0 0 0
7528 6 1 0.12462672658773546 16.758556720015076 3.906569166427843 1 0 0
3304 22 1 17.172649325984594 12.3268534578682 0.5072676132155878 0 0 0
777 7 1 3.0725407263533033 9.479075902568527 0.5790870859797222 0 0 0
778 7 1 3.425433484920107 10.296076019318658 1.8462307842560781 0 0 0
779 7 1 4.507474090351976 9.619145964321133 2.704209063346506 0 0 0
780 7 1 4.948231376646182 10.450988523817301 3.9021639358649995 0 0 0
781 7 1 5.996511475791444 9.813613161479688 4.765894987307213 0 0 0
782 7 1 6.493362904681595 10.503752312635621 6.035140066460466 0 0 0
783 7 1 7.452997203217087 9.729650391429596 6.942303871794083 0 0 0
885 9 1 10.668206921733086 12.317257983551725 5.90479056693551 0 0 0
886 9 1 11.790630998302438 12.954011771932121 6.727527875008505 0 0 0
887 9 1 11.94812353199057 12.324403242764184 8.08466672146491 0 0 0
888 9 1 13.166916712616475 12.829436557260765 8.861057701647427 0 0 0
889 9 1 13.462956224328533 12.13547903948559 10.20178035388608 0 0 0
890 9 1 14.594133277658559 12.874014629016292 10.90937569496424 0 0 0
891 9 1 15.026504524970102 12.230843664545844 12.282411222103978 0 0 0
892 9 1 16.200036455935116 12.799515937507763 13.01337846771797 0 0 0
893 9 1 16.553017090711613 12.074259260445247 14.30719614608138 0 0 0
894 9 1 17.640180969882326 12.706882997445218 15.098621901531557 0 0 0
895 9 1 17.78944522673427 12.070182295958249 16.491456902858324 0 0 0
1007 11 1 18.411278408552896 17.213229695473714 17.787953007523836 0 0 0
8467 53 1 9.568997844744711 26.289126987883016 17.788464145675462 0 0 0
15 49 1 16.90749899450188 1.5837475249056356 23.025662586224648 0 0 0
918 9 1 8.018408510176112 12.091171547095914 1.5571384031008308 0 0 0
919 9 1 9.172862941539233 12.714611236356284 2.3676976508260927 0 0 0
920 9 1 9.488891620270612 12.056286315264948 3.646072985732228 0 0 0
921 9 1 10.467923976783863 12.892091171986811 4.480559540966487 0 0 0
922 45 1 7.775192311722348 15.21210287211712 7.768053643526968 0 0 0
923 45 1 8.48183242613325 14.395336107659144 8.845968357749221 0 0 0
924 45 1 9.11491279203935 15.287989300101776 9.932577938849288 0 0 0
925 45 1 9.728615977672218 14.430605034079528 11.063547809521012 0 0 0
926 45 1 10.461392972622143 15.27006676694476 12.165615921918155 0 0 0
927 45 1 11.201329018773245 14.420276814349373 13.197400843699997 0 0 0
928 45 1 11.72087757460232 15.10597342479977 14.471432608169481 0 0 0
929 45 1 12.75532317648441 14.237690554983322 15.236413815114274 0 0 0
930 45 1 13.118098481357368 14.778931433529591 16.632856688576094 0 0 0
931 45 1 14.333690427734572 14.296383851126432 17.43479426435431 0 0 0
932 45 1 14.228716074391611 14.694031716739172 18.953440808130154 0 0 0
933 45 1 15.430081128310514 14.210835311566804 19.830806281429094 0 0 0
934 45 1 15.61933821434301 14.772363419591949 21.164629764461925 0 0 0
935 45 1 16.751586463254405 13.99399055247095 21.890696383840336 0 0 0
936 45 1 17.088031494096743 14.652445341311267 23.281467207889833 0 0 0
8459 53 1 4.15919037837881 25.86934416346266 9.128178413856784 0 0 0
952 45 1 3.0966866866561107 13.853084294819023 0.10437706227354232 0 0 0
953 45 1 3.294660838359141 14.48821069353782 1.4623167741975245 0 0 0
954 45 1 4.528371072921759 13.997548010386884 2.174896542770731 0 0 0
955 45 1 4.751728496925191 14.754483787143164 3.507501355447459 0 0 0
956 45 1 5.808844087506809 14.136458869626217 4.440195328763107 0 0 0
957 45 1 6.281891972270557 15.066684111982632 5.599367094429139 0 0 0
958 45 1 7.037899112199174 14.36499263617939 6.718186845961795 0 0 0
996 11 1 10.746763250715397 16.613587511608912 5.890355541917117 0 0 0
997 11 1 11.979733257476118 17.258141006425973 6.612350485958963 0 0 0
998 11 1 12.084588140218496 16.853878699351306 8.089915850986996 0 0 0
999 11 1 13.265066603282648 17.492944251499523 8.959812399569383 0 0 0
1000 11 1 13.536208759151895 16.725776570869986 10.24738425057666 0 0 0
1001 11 1 14.531123105918283 17.400950705407364 11.167667966781076 0 0 0
1002 11 1 14.767330523369644 16.655518322275817 12.497464764796765 0 0 0
1003 11 1 15.934922434846928 17.199174285020018 13.321233920518209 0 0 0
1004 11 1 16.11178874355142 16.55571031090492 14.741469738211633 0 0 0
1005 11 1 17.132275809680927 17.233729903747804 15.633719367491489 0 0 0
1006 11 1 17.475794657797035 16.44600268310734 16.878387728890072 0 0 0
3011 15 1 16.45953720105232 8.411980889302155 0.23782514537769514 0 0 0
8472 53 1 12.72335656247513 25.349932477601314 23.411405886484918 0 0 0
1215 11 1 7.790144765845994 16.86322965752103 0.17830982103244938 0 0 0
1216 11 1 7.898706360006986 16.34348019901817 1.6198545857830673 0 0 0
1217 11 1 9.235752844668877 16.79409674396102 2.326858844284466 0 0 0
1218 11 1 9.414528833507521 16.335757551014076 3.7538027999851384 0 0 0
1219 11 1 10.766558224008756 16.754945605396763 4.351898167393625 0 0 0
1220 32 1 7.849782850214834 19.39071091738512 8.055978959031485 0 0 0
1221 32 1 9.01399681196768 18.96511000957665 8.904960874093776 0 0 0
1222 32 1 9.13059928614637 19.442177834028424 10.37090072688322 0 0 0
1223 32 1 10.423439767958852 19.015016583155553 11.084023719220363 0 0 0
1224 32 1 10.502387212076908 19.444624816533434 12.5358783936761 0 0 0
1225 32 1 11.704251367877864 18.990304221544307 13.28012682135491 0 0 0
1226 32 1 11.608814232794941 19.198372828259156 14.73017798844309 0 0 0
1227 32 1 13.008245185174443 19.000761666252338 15.43278030693423 0 0 0
1228 32 1 12.99184769297279 19.42609435440898 16.896101824415755 0 0 0
1229 32 1 14.30063933345619 19.098560022050307 17.61962700638143 0 0 0
1230 32 1 14.33256952332242 19.272052514369218 19.138587220407366 0 0 0
1231 32 1 15.660284891890747 18.889491588629554 19.746544020031255 0 0 0
1232 32 1 15.689950886610136 19.0420504725096 21.251209393721492 0 0 0
1233 32 1 17.002764244949216 18.587598128847112 21.855966679880087 0 0 0
1234 32 1 16.878036101376704 18.637880972641593 23.39188264960233 0 0 0
8463 53 1 6.84401374446697 26.141484974489586 13.414711343214865 0 0 0
1437 32 1 3.3821753904006235 18.53639271108257 0.42645183757026367 0 0 0
1438 32 1 3.644559827436025 19.234623437990113 1.7797873294836961 0 0 0
1439 32 1 4.802288654709223 18.60869001312094 2.548772118457375 0 0 0
1440 32 1 5.151123224781755 19.373957818544497 3.848840376900653 0 0 0
1441 32 1 6.460920176091924 18.857841312905656 4.473097800793827 0 0 0
1442 32 1 6.631518915178821 19.402276252646086 5.8398513294373915 0 0 0
1443 32 1 7.761238233913131 18.8254529581481 6.66550009732265 0 0 0
1444 9 1 11.147532644032031 21.010289566978564 5.967856882664898 0 0 0
1445 9 1 11.97697115711079 21.89665945884536 6.785726004614928 0 0 0
1446 9 1 12.077311430988848 21.382673109110772 8.244004024623957 0 0 0
1447 9 1 13.184971534338098 21.959160459981206 9.114962626360592 0 0 0
1448 9 1 13.543758441734369 21.248289840311617 10.386172137373485 0 0 0
1449 9 1 14.80690607272876 21.822611488132516 11.084886923835674 0 0 0
1450 9 1 15.09523754087451 21.244978096293792 12.451575366086804 0 0 0
1451 9 1 16.259551795510028 21.850020607756928 13.204873212955908 0 0 0
1452 9 1 16.44097115780983 21.317002103815682 14.650838278174085 0 0 0
1453 9 1 17.66702655820396 21.912625476960915 15.369976614776014 0 0 0
1454 9 1 17.761843389191057 21.490131356948616 16.817767703535086 0 0 0
1008 11 1 18.996362399941102 16.400616565653557 18.970689143231418 0 0 0
897 9 1 18.784629741755182 11.962829409518882 18.850060129562017 0 0 0
6837 33 1 8.274231309341111 6.1258974966014925 23.58875551008937 0 0 0
1664 9 1 8.126747388003446 20.956295017037075 1.812277989660188 0 0 0
1665 9 1 9.370995777809929 21.559886514345422 2.5121213915286194 0 0 0
1666 9 1 9.51845852890454 21.033472602255067 3.9682046179615167 0 0 0
1667 9 1 10.817016017141693 21.54687151290797 4.615603017793697 0 0 0
1668 15 1 7.413025979190273 23.775031829667792 8.188601746470788 0 0 0
1669 15 1 8.758425909280767 23.446474368027303 8.929439857245915 0 0 0
1670 15 1 8.789679406833502 23.91231640990869 10.387950077999486 0 0 0
1671 15 1 9.993916220192173 23.277702272544392 11.18028852798945 0 0 0
1672 15 1 10.152904228755375 23.78230230976371 12.628729922511509 0 0 0
1673 15 1 11.13133451959389 23.05743937135751 13.542819480525074 0 0 0
1674 15 1 11.333613647541853 23.86594164306358 14.794910647214037 0 0 0
1675 15 1 12.398158347776839 23.20523551189015 15.607807087051096 0 0 0
1676 15 1 12.743981786268295 23.936426225846905 16.876476327834666 0 0 0
1677 15 1 13.713034625682928 23.097563883575415 17.6322438436803 0 0 0
1678 15 1 14.095385389554536 23.861792260153898 18.885738899962387 0 0 0
1679 15 1 15.076846065875035 23.099123851408304 19.73819213033809 0 0 0
1680 15 1 15.797754765181999 23.795084058766058 20.80969062846635 0 0 0
1681 15 1 16.577868690609332 22.941251436100202 21.81144467427414 0 0 0
1682 15 1 17.129310656243366 23.704623415784557 23.034915106602835 0 0 0
8462 53 1 5.825366987966632 25.264066678339105 12.607514594905012 0 0 0
1885 15 1 3.028012071783159 23.28471881349711 0.3735572958293097 0 0 0
1886 15 1 3.0320769730443566 23.500401861903434 1.8469320960904634 0 0 0
1887 15 1 4.440780663126485 23.36197427307238 2.4335878062023575 0 0 0
1888 15 1 4.479946170306761 23.639850035163104 3.9224630512693115 0 0 0
1889 15 1 5.891085321173059 23.5838760680006 4.500200643913538 0 0 0
1890 15 1 6.039941274873483 23.814350110235182 6.00808561606438 0 0 0
1891 15 1 7.384973375608521 23.501038232349156 6.667316455593025 0 0 0
1892 20 1 10.55081921809787 25.723944245332444 5.6141504493063445 0 0 0
1893 20 1 11.911984566875367 25.878898699932584 6.30931670997068 0 0 0
1894 20 1 11.740734981437882 25.90160961300177 7.790530732056479 0 0 0
1895 20 1 13.074942450468809 25.9789527618797 8.567393273428436 0 0 0
1896 20 1 12.993683368492118 25.711619175624293 10.105353711093587 0 0 0
1897 20 1 14.379693370988365 25.64661657504651 10.853829613200135 0 0 0
1898 20 1 14.24788834589898 25.446797434434448 12.402630522065003 0 0 0
1899 20 1 15.558883651844736 25.82329341629559 13.043399615844454 0 0 0
1900 20 1 15.625898488479551 25.669649563432884 14.56832795186259 0 0 0
1901 20 1 16.88780190245262 26.13144838282025 15.245869610523057 0 0 0
1902 20 1 17.164906601736494 25.47450265621512 16.589265040388195 0 0 0
8212 63 1 4.754341039305006 23.712791756022312 18.7752345443103 0 0 0
8466 53 1 8.61201767004401 25.50683267597951 16.90116332438568 0 0 0
2789 15 1 17.986667183191752 8.356711281195329 2.3735502157757953 0 0 0
2112 20 1 7.706251862462135 25.511661894323144 1.4255876807413408 0 0 0
2113 20 1 9.14107540990111 25.68399491962335 1.9306839099877213 0 0 0
2114 20 1 9.205374286767697 25.703983679797954 3.4850156168006987 0 0 0
2115 20 1 10.593220657741616 25.743900131864233 4.094794182533772 0 0 0
2116 17 1 13.994768277406957 1.4560021212190062 3.8232623472470375 0 0 0
2117 17 1 15.159323979866198 0.8658593409173435 4.653591364020983 0 0 0
2118 17 1 15.340757771647723 1.1738238849117641 6.152341051243459 0 0 0
2119 17 1 16.596779917211105 0.5854655577531477 6.862860582995339 0 0 0
2120 17 1 16.998537639638712 1.466808038910623 8.033993783080115 0 0 0
2121 17 1 18.106400601328897 0.949325830379345 8.98898780057949 0 0 0
8207 63 1 1.8323798248522662 22.95333089244105 13.05400182247321 0 0 0
2337 17 1 12.36209649786759 1.2970810685420053 0.24713524966555722 0 0 0
2338 17 1 12.616279139196203 1.686413713630168 1.6807389975147353 0 0 0
2339 17 1 13.771464917711384 1.00398729475349 2.365332032890917 0 0 0
2340 43 1 17.42342093723665 3.144853143584858 1.569793612294667 0 0 0
1903 20 1 18.44541709275439 25.893195561264886 17.30070493183779 0 0 0
1904 20 1 18.667342502939928 25.58920910748356 18.831363623213402 0 0 0
2563 43 1 17.058103479699927 3.929139516174639 0.3260450519629112 0 0 0
2564 18 1 14.182947037977844 5.558582790586255 4.326640932902376 0 0 0
2565 18 1 15.517864210693142 5.243780390629599 5.055963167370688 0 0 0
2566 18 1 15.470031397913546 5.806980820708491 6.493703379577966 0 0 0
2567 18 1 16.71333995766561 5.491406728055206 7.315902869257053 0 0 0
2568 18 1 16.633096796045244 5.998507655997848 8.721593957320374 0 0 0
2569 18 1 17.997690816796496 5.797584972198536 9.314752885872029 0 0 0
2570 18 1 18.241016377954086 6.160316128179032 10.753627567947946 0 0 0
2785 18 1 12.818579145257996 5.2993377786628395 0.7364071825026296 0 0 0
2786 18 1 12.884604544351506 5.744781184004567 2.1890557124427232 0 0 0
2787 18 1 14.17549673157204 5.240624039411328 2.853038006280642 0 0 0
2788 15 1 16.87617138302815 7.70493773674388 1.5690047740583488 0 0 0
8206 63 1 0.7001206205937993 23.52047533537426 12.224476224757446 0 0 0
8469 53 1 11.082295908009252 26.135105979555636 19.87805603919326 0 0 0
4163 30 1 18.120374864674453 25.991664517571845 2.2643171066342327 0 0 0
3012 14 1 13.769098739287031 10.302791676622899 3.913866926878564 0 0 0
3013 14 1 14.848232890057723 9.602461231755942 4.761420718641272 0 0 0
3014 14 1 15.256981487608392 10.293488898764771 6.021696254402283 0 0 0
3015 14 1 16.36567224017152 9.638399452532209 6.89949164339549 0 0 0
3016 14 1 16.605428075341464 10.356395212124754 8.261528789271946 0 0 0
3017 14 1 17.883355865729808 9.854854641664343 8.914748528647545 0 0 0
3018 14 1 18.12565536597289 10.536678157551219 10.268567760781337 0 0 0
3233 14 1 12.184938628842563 9.861467829601795 0.47835589932445766 0 0 0
3234 14 1 12.475559783190322 10.573220678783365 1.784803975383781 0 0 0
3235 14 1 13.406110623348495 9.67377264028768 2.612541916549628 0 0 0
3236 22 1 17.159377871082338 12.117181275194037 1.9979077620532246 0 0 0
3237 22 1 18.37824999546363 12.588323384164417 2.6614348364381315 0 0 0
8458 53 1 3.0488015043848593 25.18888079740245 8.23982068355361 0 0 0
3568 26 1 18.200063015425087 16.35977102664066 3.6822177649108654 0 0 0
3342 26 1 14.182022044321041 14.62357486051588 3.813732922709296 0 0 0
3343 26 1 15.342868801666539 14.1017402138593 4.745123668796881 0 0 0
3344 26 1 15.323489868080271 14.722696430454814 6.148541360041677 0 0 0
3345 26 1 16.336250012677215 14.129654840747696 7.150259331218918 0 0 0
3346 26 1 16.601354365930217 15.024510236606963 8.380320662190117 0 0 0
3347 26 1 17.740845816646342 14.481469148281244 9.242503705735233 0 0 0
3348 26 1 18.082181876828592 15.237963197509012 10.600561531831849 0 0 0
917 9 1 7.794701508442726 12.701208011163132 0.21075092378105317 0 0 0
3564 26 1 12.734959099699616 14.707821197545393 1.736101655534695 0 0 0
3565 26 1 14.101616507787634 14.307420991268446 2.3396899671494227 0 0 0
3566 26 1 17.067399471834864 16.399733292672657 1.5258001412771127 0 0 0
3567 26 1 17.97885761811978 17.18989704364793 2.444660070020961 0 0 0
8211 63 1 4.4100021931271245 22.930140675013714 17.514928392487676 0 0 0
3789 26 1 16.507170498285998 17.231104123951003 0.39473599886793137 0 0 0
3790 27 1 14.220695849461396 19.19626870811856 3.9288366857187755 0 0 0
3791 27 1 15.455408114814693 18.61025654403778 4.710255626020592 0 0 0
3792 27 1 15.554418366731326 19.083498197731508 6.183707959811717 0 0 0
3793 27 1 16.792351137163035 18.608742177367155 6.971483210764924 0 0 0
3794 27 1 16.812877513784315 19.191764342107664 8.411387077014517 0 0 0
3795 27 1 18.07113898039732 18.842579177431197 9.237285077774413 0 0 0
3796 27 1 18.08387053127449 19.347634534522545 10.650178964193616 0 0 0
3824 27 1 12.658550314749936 18.826591189844603 0.40497384252340424 0 0 0
3825 27 1 12.734664197791087 19.19845839748288 1.90125527806345 0 0 0
3826 27 1 14.092783755860749 18.828648193186854 2.450237965049465 0 0 0
3864 29 1 17.18628278302896 21.028552734088148 1.9111197258176038 0 0 0
8465 53 1 8.271414578514387 26.232327138625703 15.571375052841406 0 0 0
8464 53 1 7.30819590102292 25.476212979927435 14.71563341781134 0 0 0
4087 29 1 17.101154624964096 21.364617800972404 0.4326177815086683 0 0 0
4088 17 1 14.12907096905936 23.810119120902073 3.7084605532390733 0 0 0
4089 17 1 15.133019790048966 23.140915158051452 4.643800556528714 0 0 0
4090 17 1 15.340327038517334 23.812609246858003 5.974149788823239 0 0 0
4091 17 1 16.279670416373776 23.080055720590327 6.861409985106293 0 0 0
4092 17 1 16.729218013465175 23.786997875862763 8.139601699774527 0 0 0
4093 17 1 17.874669100361672 23.09077891283361 8.959651429124037 0 0 0
4094 17 1 18.196017977571547 23.797875971145594 10.302686226467882 0 0 0
7309 58 1 1.2967692811005258 14.768220167262275 11.267447870183418 0 0 0
4123 17 1 12.754081626686355 23.68535798982125 1.6810259472511597 0 0 0
4124 17 1 13.802262383645543 22.989472900422555 2.491052606602344 0 0 0
4162 30 1 16.876373048243234 25.452105735761812 1.4999650735933514 0 0 0
2341 43 1 18.13821184662223 3.9414562380502645 2.6653020628755275 0 0 0
8205 63 1 0.3450695223092493 22.789438993855505 10.903479055119247 0 0 0
4198 30 1 16.736627584307723 26.127345309005833 0.1201897246927754 0 0 0
4481 33 1 1.8026049198656948 3.517478136786361 19.768378729186956 0 0 0
4482 33 1 1.9295943078304292 3.1401476737482494 21.234616343478244 0 0 0
4483 33 1 3.061405810125664 3.8003550587392763 21.963479337829792 0 0 0
4484 33 1 3.1457294640162683 3.3670650971463405 23.37793134516379 0 0 0
8461 53 1 5.373634248696406 26.079193321033532 11.387033430345106 0 0 0
4926 37 1 1.943647285209325 8.137631439010267 19.28682798224495 0 0 0
4927 37 1 1.960802461677281 7.657508087300792 20.80249497087563 0 0 0
4928 37 1 3.1644570852615788 8.175935253191865 21.57701710017639 0 0 0
4929 37 1 2.9824266812655273 8.00993614576174 23.05701024003386 0 0 0
8457 53 1 2.747908670728795 25.734329340451765 6.765666122617978 0 0 0
5104 40 1 2.093650770491246 12.445068822226864 19.732854438183782 0 0 0
5105 40 1 1.9900789741842173 12.284009586078716 21.25236461172379 0 0 0
5106 40 1 3.3350973962148056 12.27410860311622 21.875900377386632 0 0 0
5107 40 1 3.1912080798650684 12.268936737427468 23.416179725014658 0 0 0
3865 29 1 18.3706914636337 21.541035726249447 2.6546924153954556 0 0 0
5552 63 1 1.8872977536135287 16.757241961325445 20.03426162119383 0 0 0
5553 63 1 2.0239599075839307 16.323166991713403 21.498021666733504 0 0 0
5554 63 1 3.4424094301433326 16.484580159891493 22.085539614042137 0 0 0
5555 63 1 3.4853057138165227 16.226082426990715 23.613001689086147 0 0 0
8210 63 1 3.3863071268013045 23.648641403782403 16.603923374680974 0 0 0
6000 4 1 1.7031732251479257 21.12517349364083 19.94248364957023 0 0 0
6001 4 1 1.6359488035013652 20.805396621864514 21.431095425300466 0 0 0
6002 4 1 2.882436002550592 21.28636814938401 22.167603907544525 0 0 0
6003 4 1 2.9827911994677803 20.730979495634816 23.590197957292638 0 0 0
8456 53 1 1.432727194741775 25.26230879137459 6.2032205850851465 0 0 0
6315 62 1 1.3095716892162406 25.87016524321954 19.91747307708162 0 0 0
6316 62 1 1.9146847554424236 25.155637829320252 21.117571607873924 0 0 0
6317 62 1 2.6606932780352732 26.13825184804377 22.010043274215345 0 0 0
6318 62 1 3.2112380655127697 25.3306293565728 23.21919213746181 0 0 0
4925 37 1 0.711852645199718 7.758286815393668 18.48978982652339 1 0 0
6533 53 1 0.9826258408130565 0.8837255911630713 11.856966332082997 0 0 0
6534 53 1 1.3127546371589562 1.5954808982765485 13.175869528731901 0 0 0
6535 53 1 2.3973339640175024 0.8780779867888707 14.032381524430459 0 0 0
6536 53 1 2.7339405449386582 1.4995755794944854 15.44641734804192 0 0 0
6537 53 1 4.005840894488392 1.1208867110154688 16.211054374914777 0 0 0
6538 53 1 4.139527091889237 1.5636693882838009 17.634779028597 0 0 0
6539 53 1 5.364327801996785 0.9715782506323154 18.297594420187963 0 0 0
6540 53 1 5.600020682784529 1.4286022067363013 19.775530570913077 0 0 0
6541 53 1 6.758742370853605 0.8873409432903262 20.564472956376825 0 0 0
6542 53 1 6.732304212740938 1.4404849713920556 21.99404267590943 0 0 0
6543 53 1 7.943771851870545 0.9049060447155509 22.879346087941766 0 0 0
2790 15 1 18.21672379856678 7.858990890147706 3.7509777108878724 0 0 0
8455 53 1 1.0701688944138164 25.74974644138189 4.81400464401089 0 0 0
6783 35 1 0.9762274724873408 3.408512927862713 4.460518409608059 0 0 0
6784 35 1 1.0031428463732917 3.0146796970796106 5.936336769845443 0 0 0
6785 35 1 2.3421986557526973 3.414138041053927 6.608298239217779 0 0 0
6786 35 1 2.496872474677578 2.8158864679748716 7.99669539252595 0 0 0
6787 35 1 3.8189314238407164 3.291621231850388 8.605612291928486 0 0 0
6788 35 1 3.98672675264909 3.1468568328152187 10.15218125975546 0 0 0
6789 35 1 5.334011865094737 3.552950377072175 10.779251946000823 0 0 0
6790 35 1 5.355129635844403 3.153952953903154 12.268118752928933 0 0 0
6791 35 1 6.605693516141588 3.647915511930612 13.011353561487036 0 0 0
6792 35 1 6.57597904276749 3.5679276094113 14.541358924121429 0 0 0
6793 35 1 7.946704572941921 3.7917446887954713 15.227937154675244 0 0 0
6794 35 1 8.041476281287219 3.1680669962668366 16.634476937952975 0 0 0
6795 35 1 9.284066328616095 3.667232136912519 17.435850102725873 0 0 0
6796 35 1 9.488656279801924 3.1815513217857445 18.82187690800153 0 0 0
6797 35 1 10.740021131754489 3.6245393513570456 19.599088967529198 0 0 0
6798 35 1 10.684821247117654 3.2821239724375424 21.072414057731926 0 0 0
6799 35 1 11.973365965807162 3.5504120624957727 21.856172653887104 0 0 0
6800 35 1 11.994140378180246 3.062969580242766 23.327150345790322 0 0 0
6826 33 1 1.1003752496873038 5.314022904005445 11.483479547100078 0 0 0
896 9 1 18.884701117917384 12.607891635931686 17.409516178954 0 0 0
6827 33 1 1.5942237700499868 6.187447008197881 12.660474044350138 0 0 0
6828 33 1 2.5021691554805896 5.354381926402598 13.536194633502301 0 0 0
6829 33 1 2.7971716243720297 6.009191360681163 14.903400561842822 0 0 0
6830 33 1 3.7761499365617035 5.252590226974655 15.817087307103202 0 0 0
6831 33 1 4.08120908773095 5.915415249665272 17.1513505690116 0 0 0
6832 33 1 5.215869105390899 5.253993052044469 17.93735967654302 0 0 0
6833 33 1 5.435015500569267 5.869026651938172 19.33598661120554 0 0 0
6834 33 1 6.492054341596087 5.1847592844282255 20.23492069370858 0 0 0
6835 33 1 6.773476580610968 5.86458140791451 21.515228180391844 0 0 0
6836 33 1 7.843066696768014 5.261477634885084 22.417866374067728 0 0 0
4164 30 1 18.38403930349434 25.31761139459845 3.617177204926397 0 0 0
8471 53 1 12.346413735625452 26.132843964863852 22.134120349004363 0 0 0
6931 38 1 1.3850066342215719 8.40267504517509 4.886979695623354 0 0 0
6932 38 1 1.6892124368918076 7.819269181736562 6.312455954633308 0 0 0
6933 38 1 2.8751389337945836 8.417050905278789 7.058020090623465 0 0 0
6934 38 1 3.053171454244551 7.80992130584335 8.434148573164348 0 0 0
6935 38 1 4.311755835185673 8.283672906904453 9.103242342823332 0 0 0
6936 38 1 4.541114145147121 7.649212348089379 10.508486830509378 0 0 0
6937 38 1 5.757820367352584 8.181125402930181 11.293586327361743 0 0 0
6938 38 1 5.888005927502866 7.514676452496712 12.658003507505647 0 0 0
6939 38 1 6.924097016508664 8.227940176272126 13.465863066081626 0 0 0