LAMMPS data file via write_data, version 23 Jun 2022, timestep = 11112117

8487 atoms
2 atom types
8471 bonds
3 bond types
8455 angles
3 angle types
8439 dihedrals
3 dihedral types

0 36.89775039 xlo xhi
0 26.67072 ylo yhi
38.629034413356194 198.12256998659302 zlo zhi
0 5.0180139087691025 0 xy xz yz

Masses

1 14
2 15

Pair Coeffs # lj/cut/omp

1 0.0914 3.95
2 0.1947 3.75

Bond Coeffs # harmonic/omp

1 449.5 1.53
2 449.5 1.53
3 449.5 1.53

Angle Coeffs # harmonic/omp

1 62.0967 114
2 62.0967 114
3 62.0967 114

Dihedral Coeffs # opls/omp

1 1.411 -0.271 3.145 0
2 1.411 -0.271 3.145 0
3 1.411 -0.271 3.145 0

Atoms # molecular

1 1 1 7.6669554670042075 0.725909363576774 43.83440456739544 0 0 0
2 1 1 8.372572534322222 0.22786874922110306 45.068602398887876 0 0 0
3 1 1 9.680502925555409 0.9597200005571794 45.41404498611539 0 0 0
4 1 1 10.35664833368435 0.20713726844449112 46.58386584682084 0 0 0
5 1 1 11.185433873475738 1.1722427980190784 47.4054434521269 0 0 0
6 1 1 12.114201506628005 0.29719095284092906 48.272538904070856 0 0 0
7 1 1 12.441008423217603 0.9029764070960993 49.62948874212945 0 0 0
8 1 1 13.516278578592738 0.018389399821221758 50.23348976997281 0 0 0
4504 43 1 1.821308563759985 7.776914548198047 52.36354609243569 1 0 0
2591 14 1 16.688577490121574 8.629513217208503 44.1202470248198 0 0 0
8018 63 1 10.74436931943077 21.029531298659247 51.43720501864364 0 0 0
1194 12 1 15.326708172386061 16.440873645133642 46.91093664774385 0 0 0
2140 22 1 16.41460749383372 2.1332347195705124 39.424638683176994 0 0 1
7505 59 1 13.186271059465422 15.631108424174307 53.79655175267777 0 0 0
6812 54 1 3.419557489529649 4.798484572815932 48.92779170882364 1 0 0
1669 15 1 9.351070179411504 20.23274260068506 40.636590375044364 0 0 0
7045 55 1 2.2793415880423926 11.263102743103026 43.714304968767514 1 0 0
1889 17 1 1.936660020112484 22.59220849343443 38.8485476841445 0 0 1
4056 39 1 0.9683794650845514 2.561728324851794 51.57031745906382 1 0 0
1223 12 1 7.837758879194962 16.291664368671935 39.55095206907274 0 0 0
7044 55 1 1.4678914589393102 11.837455336516987 42.60562211093317 1 0 0
43 1 1 5.827236810529377 0.7463002651470942 42.131070663735734 0 0 0
44 1 1 6.423836048289635 0.10198506503946773 43.30077249581894 0 0 0
7274 3 1 1.9243789847414743 13.233778760739765 47.42783330328691 1 0 0
3070 25 1 17.492710179560067 15.39655662626197 39.57706492294755 0 0 1
4057 39 1 1.6776034189148006 3.5611111684213252 52.486751658568245 1 0 0
137 2 1 9.053909925123941 2.6568426756406875 40.459806524408954 0 0 0
138 2 1 10.203108365281917 3.4300930465163293 41.139465222744704 0 0 0
139 2 1 10.961772676541424 2.5805187240857284 42.07440812977778 0 0 0
140 2 1 11.530131761629677 3.3730556242517573 43.18885936404157 0 0 0
3589 35 1 14.301278303534726 23.400927379209506 41.17951857714949 0 0 1
1131 52 1 4.6372162887224615 13.251228113370226 40.854704407766256 0 0 1
7720 26 1 3.76863341467852 18.001798642092794 49.2491996417271 1 0 0
4506 43 1 3.776937671633613 7.672374928702885 53.977634229306254 1 0 0
6585 52 1 0.71034377445541 2.2583714131920423 41.734133661410084 1 0 1
3106 50 1 15.39940926496788 18.13652228143108 41.59574552384359 0 0 0
7046 55 1 3.569820463642026 12.024802126804081 44.041156941724815 1 0 0
8021 63 1 13.380121968567398 19.89418797869978 54.16113732985459 0 0 0
2592 14 1 17.171245442707676 9.372204004921654 45.34122603063919 0 0 0
1891 18 1 3.7977491364194265 22.880210621578264 40.77906565332992 0 0 0
3072 50 1 17.786281270523176 18.726452618684068 44.73991385807987 0 0 0
171 3 1 9.218329661996002 5.627260713604172 45.51656899106207 0 0 0
172 3 1 10.13285891434615 4.78544341155641 46.4144769429265 0 0 0
173 3 1 11.108019836115195 5.572549539309019 47.26419653219362 0 0 0
174 3 1 11.712497704430097 4.632615229746863 48.23773687430608 0 0 0
175 3 1 12.533217246993734 5.192394496657526 49.45733284555197 0 0 0
176 3 1 13.537484957030296 4.485632358743602 50.4399431991024 0 0 0
177 3 1 14.41706395369721 5.343186755916428 51.356545674339934 0 0 0
178 3 1 15.20469298438591 4.525106052170888 52.30009999762764 0 0 0
1441 13 1 7.586503469066735 18.924121643506012 43.953815453169376 0 0 1
8060 53 1 3.641198571549166 22.32148629952393 49.25272526432451 0 0 0
7052 55 1 8.723365157051093 11.82643252313981 49.872682366660996 0 0 0
441 5 1 16.051487064086302 6.393919800482301 47.64481773531167 0 0 0
7273 3 1 0.9677466941042249 13.995280674481439 46.55563411363629 1 0 0
3590 35 1 15.249894552094139 22.475813538215945 42.03441874781777 0 0 1
3370 20 1 18.37188678076369 22.235507799928484 45.94548280153034 0 0 0
8284 64 1 5.082191535631513 25.341747378110064 46.3344899172457 0 0 0
1439 13 1 5.636316081417898 18.694914203614122 42.180738150111566 0 0 1
6960 9 1 1.6174862578893154 8.749915074675751 46.8713056274748 1 0 0
3073 50 1 18.21283418737856 17.953212083959485 45.92890644398854 0 0 0
391 3 1 5.7546970074731005 5.187580329419776 41.657966527239324 0 0 0
392 3 1 6.519322506476575 4.490980746887135 42.826932404352746 0 0 0
393 3 1 7.383152495968176 5.330385232733107 43.877481722783386 0 0 0
394 3 1 8.397093391917966 4.568715379591564 44.72364327541569 0 0 0
6959 9 1 0.5076204751650839 9.526261956879793 46.31339284111821 1 0 0
433 5 1 9.115639282825219 7.103505613319293 40.45554440602141 0 0 0
434 5 1 10.204831853368287 7.941748777436238 41.22170765854769 0 0 0
435 5 1 10.942156311219367 7.041367928616315 42.1273671197059 0 0 0
436 5 1 11.769300584401861 7.762622600251933 43.09912288735524 0 0 0
437 5 1 12.280424315344932 6.79335018800452 44.136632610752 0 0 0
2631 14 1 15.445252400726353 10.390542573497584 42.630535271787416 0 0 0
5403 44 1 3.443043018933731 16.49597523126873 53.99049638800162 1 0 0
6923 55 1 5.863347904011938 6.701481182838734 46.411868401141476 0 0 0
6922 55 1 4.8720911194067975 7.6068056128411285 45.81975195731992 0 0 0
6375 18 1 6.327087043242229 1.1291498710262076 51.82941155126122 0 0 0
7496 59 1 5.153613697082098 16.90606468577865 45.71149305980142 0 0 0
922 11 1 17.703248075002897 14.13971121852197 54.19920748111605 0 0 0
2104 21 1 18.083754175694935 2.8198440161785254 41.05785605421613 0 0 0
7718 26 1 2.0846032786202806 17.97974112368762 47.28440730049415 1 0 0
1939 7 1 17.727940650232963 24.13980620318929 49.85173910528972 0 0 0
146 2 1 16.38746784881775 2.965127489754467 48.65897734799492 0 0 0
2671 47 1 18.231044189479015 11.709204534630489 40.379131316814785 0 0 0
469 9 1 11.350572642639161 9.621641334292125 47.26914795145787 0 0 0
470 9 1 11.947487782396392 8.734635900277315 48.374283172284485 0 0 0
471 9 1 12.784290763384089 9.48290205170305 49.349192853325036 0 0 0
472 9 1 13.751034751372737 8.659919770638075 50.232161614576945 0 0 0
473 9 1 14.33424228970708 9.641489188610104 51.19716305367573 0 0 0
474 9 1 15.534116572543246 9.038263122782775 51.800191733197146 0 0 0
475 9 1 16.41406669150544 9.784684822745373 52.72878935949858 0 0 0
4058 39 1 2.7857407501534848 2.730934270113632 53.24631511122075 1 0 0
147 2 1 17.6160999343549 2.3172935566631407 49.22310412637766 0 0 0
8059 53 1 2.6198521131580095 23.247519417638806 48.55764746900159 0 0 0
2667 27 1 12.655010939886512 10.114474351306765 39.2491107650351 0 0 1
2363 24 1 14.153399918670413 5.213821721260543 40.452174726638404 0 0 0
7501 59 1 9.66192548309553 15.87827904283532 50.21876457073659 0 0 0
6377 18 1 7.854874490367154 0.9941670440566734 53.97780288217042 0 0 0
1454 15 1 17.11653746025503 20.66200085374161 48.87888310771549 0 0 0
3588 35 1 13.275903413738712 22.553921322777995 40.4227491239172 0 0 1
389 3 1 3.848035230237602 5.120143857496758 39.92535047251151 0 0 0
5400 44 1 0.6890187504001274 15.76962255458454 51.353147029921914 1 0 0
6917 55 1 0.6369884008748761 6.773517941115094 41.309454035728095 1 0 0
689 9 1 7.852738995973462 9.941331673550867 43.542575378589206 0 0 0
690 9 1 8.628224300371784 9.119071737051502 44.50902523653674 0 0 0
691 9 1 9.735326903957263 9.814225861709428 45.34922260975394 0 0 0
692 9 1 10.283913215065219 8.90927243482898 46.431086741630466 0 0 0
693 10 1 12.784946433056064 11.790049816974678 44.38725168496178 0 0 0
694 10 1 13.732845437427056 12.417962516262593 45.458267009950546 0 0 0
695 10 1 14.371923092470674 11.345060068210927 46.35523538464923 0 0 0
696 10 1 15.521085483761553 11.85770124793932 47.284771466070026 0 0 0
3587 35 1 12.340518547532476 23.275198123697752 39.43721708367501 0 0 1
3592 20 1 16.768256554239397 22.326493725529946 44.047373074982225 0 0 0
698 10 1 17.39287273621342 11.574971390349933 48.86797362273886 0 0 0
6376 18 1 6.693758057936699 0.3846403391816776 53.133975571160846 0 0 0
7281 3 1 7.638993595391376 14.5037221925953 53.47313672735608 0 0 0
8061 53 1 4.292908872843724 23.099555642682482 50.32411646392734 0 0 0
2900 10 1 18.366430143184367 12.982701818726648 45.50775738015598 0 0 0
3369 24 1 16.50718546042638 21.052741435059 39.07655345593065 0 0 0
136 2 1 7.960216768387497 3.4786733467479563 39.881194570500845 0 0 0
6589 53 1 4.349512162327809 2.3225724551852713 45.0527825026506 1 0 0
913 10 1 9.600780192802597 11.461847978055568 40.43512066311195 0 0 0
914 10 1 10.18951814612391 12.281851359344511 41.534853668783434 0 0 0
915 10 1 11.09582988158241 11.697600867274188 42.518256119690854 0 0 0
916 10 1 11.997499200648223 12.588027519953972 43.349176926849594 0 0 0
917 11 1 13.23597645739834 13.344334877396376 49.58597496795661 0 0 0
918 11 1 14.27266856956571 13.930066805197976 50.61801184623094 0 0 0
919 11 1 15.082970708759431 12.924931481495578 51.499320796255404 0 0 0
920 11 1 15.965181833234286 13.83844262638584 52.29327307703474 0 0 0
3146 24 1 17.688750749816155 20.325982513929905 39.73515012297679 0 0 0
2369 26 1 17.11497852236321 6.611113481758644 39.887754443431355 0 0 0
2362 23 1 13.250714685523658 4.43859646320902 39.52395514899832 0 0 1
6967 9 1 7.42543785378089 9.996301178971766 53.44685952506003 0 0 0
1682 18 1 17.36067274702869 22.110124648805044 53.25675531596292 0 0 0
6815 54 1 5.703639123986019 5.501633430362888 51.88798759999678 0 0 0
1974 20 1 17.487323758086774 0.7258008966592123 44.813753582667466 0 0 0
2670 47 1 17.301988711932076 10.912359047349668 39.334849048037775 0 0 0
1892 18 1 5.145157296402594 22.4577665725567 41.322041878030106 0 0 0
444 5 1 18.41745219192517 7.29707075657346 50.470043600169 0 0 0
5707 47 1 3.618928410608495 20.7197217053212 53.7053355910692 0 0 0
8283 64 1 4.229428080710366 24.53291216210831 45.43626782015833 0 0 0
1134 11 1 7.092023597924165 14.225459584766634 43.531173669449174 0 0 0
1135 11 1 8.332619792396502 13.662791933512803 44.17740156076086 0 0 0
1136 11 1 8.628496294648645 14.137315532024317 45.63691368836343 0 0 0
1137 11 1 9.74737162278277 13.390667158721659 46.10006768719282 0 0 0
1138 11 1 10.44086202285935 14.150193630632351 47.307734637933514 0 0 0
1139 11 1 11.355597508020248 13.392265146248542 48.11858336803477 0 0 0
1140 11 1 12.369157968678687 14.219073323405647 48.768692892406065 0 0 0
1188 12 1 9.771665964290467 16.5805379571499 41.207880562668805 0 0 0
1189 12 1 10.778424395960828 15.851418093320543 42.125117011394046 0 0 0
1190 12 1 11.794681098277312 16.655715427127355 43.013640525026496 0 0 0
1191 12 1 12.553368206349575 15.853236204380515 44.07343655804848 0 0 0
1192 12 1 13.51605905140668 16.688462896388597 44.98097976133248 0 0 0
1193 12 1 14.300556173030513 15.77861947011995 45.98729479803926 0 0 0
438 5 1 13.263254760158421 7.427942937484719 45.18230350146728 0 0 0
3145 32 1 14.071770679574119 18.698118861091686 41.21701870014907 0 0 1
6586 52 1 1.4154647057315501 3.283924768497134 42.5846649868961 1 0 1
8280 64 1 1.5371685275176972 25.415825640133455 42.806660105305795 0 0 0
6920 55 1 3.333251239840796 7.638932077393461 43.81206277079252 0 0 0
1890 18 1 3.337941002882301 22.27123321708621 39.45242965291458 0 0 0
7502 59 1 10.499027519591705 16.60959538819414 51.31248277014752 0 0 0
6591 53 1 6.209773476438197 2.1993271632386833 46.84231011488245 0 0 0
1966 7 1 8.894991401044573 24.70565628889132 41.194821888058726 0 0 0
148 2 1 18.071955904596965 2.905198642688851 50.49808601521836 0 0 0
8290 64 1 10.156292367963252 25.315779343136192 51.81879811101692 0 0 0
8291 64 1 11.149485122839955 24.546135414212962 52.617489301876276 0 0 0
1225 14 1 15.06641423076396 18.740417713358855 50.861916600652336 0 0 0
1226 14 1 15.856653340942461 17.917640788811877 51.866042926659325 0 0 0
1227 14 1 16.65292902307037 18.822838532370312 52.84177380895109 0 0 0
1228 14 1 17.431227824249728 17.95284394825661 53.67399839688029 0 0 0
144 2 1 14.738111101570714 3.0447436198246813 46.841248146445615 0 0 0
1129 52 1 3.010982064892001 13.10310190016898 39.082117697065826 1 0 1
5402 44 1 2.638873760930457 15.755050479585048 52.94186198288598 1 0 0
3594 21 1 17.577179455312947 24.574553861970447 39.848950567835345 0 0 0
6587 53 1 2.347282330622806 2.5823906464044377 43.601079635464984 1 0 0
2899 10 1 17.43669907905027 13.96548296128073 44.8892436173547 0 0 0
3591 20 1 16.261522128612487 23.238001558723496 42.918977844819004 0 0 0
6810 54 1 1.4885838204908268 4.492000758697668 47.26208766070916 1 0 0
3593 20 1 17.861276228461595 22.943129116101368 44.86408448459469 0 0 0
2593 14 1 18.374105080569542 8.709024817334395 46.04340659168657 0 0 0
1437 13 1 4.405242113301215 18.68178505369655 39.897284920500105 1 0 1
8282 64 1 3.222375774762254 25.306891924187227 44.58201144390833 0 0 0
686 9 1 4.881198274666585 8.904342727596514 41.29218269235671 0 0 0
3144 32 1 13.615196720708123 18.469398283197563 39.734526491428596 0 0 1
1444 14 1 10.363599184640375 17.82941028640311 46.48134652983349 0 0 0
1445 14 1 11.002162799502898 18.53226494386093 47.59930439672039 0 0 0
1446 14 1 12.263501766095247 17.875001326916117 48.03768159062098 0 0 0
1447 14 1 13.060555303330856 18.634375949505774 49.16761562842062 0 0 0
1448 14 1 14.238494300380616 17.9206838149813 49.817229061181806 0 0 0
1449 15 1 12.366561989716097 19.844709521407975 44.6819363707281 0 0 0
1450 15 1 13.400555950700895 20.57149543560141 45.45025708301088 0 0 0
1451 15 1 14.479786903691101 19.740304501348863 46.200753130842436 0 0 0
1452 15 1 15.662557173931171 20.53450867718799 46.734303273254525 0 0 0
7494 59 1 3.338190726811915 16.807989656937185 44.107766166091324 1 0 0
6598 53 1 11.752804610859558 3.2250364837129384 53.31590523745723 0 0 0
4953 43 1 1.8961281192111352 12.093563578410354 51.96507253927855 1 0 0
41 1 1 4.161450577530738 0.5340983694159738 40.254690788551095 0 0 0
7503 59 1 11.376191516216243 15.817771506410685 52.189156461818875 0 0 0
1132 52 1 5.459115014382507 14.222609671774222 41.734287804921664 0 0 1
7279 3 1 5.802408140273395 14.891417190977917 51.62774731272748 0 0 0
7056 55 1 12.330373567005475 11.957941063464393 53.459108133488385 0 0 0
7719 26 1 2.89116267438301 18.787690842074767 48.3417665990831 1 0 0
1681 18 1 16.22725398521668 23.017315049671666 52.7713003638084 0 0 0
442 5 1 16.71930170784662 7.316994524631317 48.71357541549071 0 0 0
1670 15 1 10.006938293882003 21.19194399674639 41.698461721455935 0 0 0
1671 15 1 10.869944653650988 20.403461747714932 42.59181948402598 0 0 0
1672 15 1 11.699175413096327 21.014159409278864 43.800199720912545 0 0 0
1673 18 1 9.000889394724544 23.32576253545047 46.13971586311594 0 0 0
1674 18 1 10.306393027990126 22.657016260803026 46.49921857210938 0 0 0
1675 18 1 10.958107947776567 23.3399218991253 47.67288270230972 0 0 0
1676 18 1 12.192277722658353 22.683205599328982 48.15014912392606 0 0 0
1677 18 1 12.529507752182644 23.368198866418407 49.4718238587516 0 0 0
1678 18 1 13.63017180813224 22.530775618638017 49.93697186580368 0 0 0
1679 18 1 14.487576052664377 23.213673412589685 51.010191688503355 0 0 0
1680 18 1 15.552556826246583 22.322529719276698 51.56876208570127 0 0 0
3147 24 1 18.074597150117302 20.749825430638385 41.12659768697143 0 0 0
6817 54 1 7.710318944386794 5.277510933733963 53.27328071128304 0 0 0
6919 55 1 2.307379155951843 6.8852738551608 42.9283719658186 0 0 0
7048 55 1 5.574530761075037 11.820610235080778 45.77568403290293 0 0 0
7055 55 1 11.387054402284212 11.036559079305484 52.602059641346074 0 0 0
7500 59 1 8.475193852389442 16.660591001663832 49.759763345372335 0 0 0
7721 26 1 4.506253170540031 18.908772729461127 50.10901250451078 1 0 0
2141 22 1 17.390592149743895 3.1546092799690895 39.83217828090127 0 0 1
6814 54 1 5.081846597685267 4.655771910564898 50.79077105609762 0 0 0
6816 54 1 6.5445272323121095 4.510117117628816 52.62045516411962 0 0 0
3143 32 1 12.142294101429435 18.884224252797868 39.450720729472735 0 0 1
1893 18 1 5.368046865771715 22.766792258802116 42.80609278683781 0 0 0
1894 18 1 6.736098108020471 22.78552169313894 43.08143305609604 0 0 0
1895 18 1 7.285751935058547 23.313201190384692 44.397626623786564 0 0 0
1896 18 1 8.701940342170197 22.843509865406464 44.823038873607764 0 0 0
1934 7 1 13.85042437965248 25.532532769375727 44.93968492498087 0 0 0
1935 7 1 14.537417456823817 24.52742533199462 45.91565146137496 0 0 0
1936 7 1 15.525645575298496 25.265558653604817 46.824103172121696 0 0 0
1937 7 1 16.001484602068455 24.320456140239497 47.898693676038114 0 0 0
1938 7 1 16.991644229773925 24.926082207885635 48.82334252234493 0 0 0
921 11 1 16.939945731009505 13.165763831341822 53.23440642460106 0 0 0
1932 19 1 7.564718798659582 24.35972498166072 39.15130539758804 0 0 1
7043 45 1 0.9393791957109444 10.779468382737734 41.62639203251201 1 0 1
2029 20 1 13.117433279158673 0.062026495004425856 40.20140811670043 0 0 0
6588 53 1 3.365240926237582 3.277901631001549 44.427866779896014 1 0 0
1196 12 1 16.9585132393218 16.337559391765275 48.95064695222141 0 0 0
6809 54 1 0.7748984847557083 5.161555250627954 46.066298141743246 1 0 0
6372 18 1 3.5126209243308586 0.3417151486037683 49.18152182533749 0 0 0
8020 63 1 12.424977612809503 20.80002064778155 53.373179868731285 0 0 0
1967 7 1 10.056751947824347 25.53195993473182 41.76669681709868 0 0 0
1968 7 1 10.918488052331195 24.5775663046744 42.57391597188741 0 0 0
1969 7 1 11.6994055354397 25.358003409677828 43.54354803678772 0 0 0
1970 7 1 13.051255268050461 24.801626371225865 43.9073253921802 0 0 0
1971 20 1 14.930219489851035 0.16092486814702006 41.98678066553064 0 0 0
1972 20 1 15.670020859298589 0.9872909436363934 42.983117795699094 0 0 0
8286 64 1 6.890810829061007 25.433032719537938 48.14364544147434 0 0 0
6147 6 1 1.1547292567573162 24.625469541345467 51.18409861300188 1 0 0
440 5 1 15.017492145840869 7.240263583435023 46.99524114619927 0 0 0
1973 20 1 16.837347428488034 0.2177015480420953 43.52423465371925 0 0 0
2143 24 1 17.48982906943268 5.173408095061207 44.301288176410075 0 0 0
7491 58 1 0.9952818296150221 15.38382849711736 41.55136769100695 1 0 1
1436 13 1 3.275104817002643 17.961807226983385 39.25588569887488 1 0 1
2030 20 1 13.714114681267759 0.8145297109421089 41.33089983529079 0 0 0
11 1 1 16.178674684025896 0.6418507347129383 52.89495284896027 0 0 0
180 3 1 17.222231253405223 4.348905453084577 53.931737483419205 0 0 0
1133 52 1 6.722231807054068 13.494672867682743 42.212051861533915 0 0 1
1442 14 1 8.54846353745683 17.917497845853667 44.57805502251223 0 0 0
2142 24 1 16.47719774259147 4.259805555260329 43.64127799701096 0 0 0
1940 7 1 18.809048200163847 24.959294393400953 50.45830773917383 0 0 0
8292 64 1 12.059774176089139 25.530199721941933 53.37450167440871 0 0 0
1224 12 1 8.983199818709219 15.659239770006229 40.289030805721254 0 0 0
6590 53 1 5.105942871911186 3.0067782638665235 46.20390885511621 1 0 0
6925 55 1 7.63377640941453 6.486112352892507 48.176130551331255 0 0 0
6148 6 1 2.1886635053227463 25.465553937275985 51.96711784841076 1 0 0
8013 63 1 6.0013356951923456 20.307463031053025 46.8014515118337 0 0 0
2364 24 1 14.492687380056616 4.404592003357459 41.76486449220312 0 0 0
2365 24 1 15.42432273373644 5.11251867431617 42.839203969680845 0 0 0
3108 50 1 16.701743031091837 17.9919142201854 44.0106166347293 0 0 0
1438 13 1 5.078632042716009 17.83428250683168 41.032466884116396 0 0 1
6927 55 1 9.117137121380427 6.473273831904479 50.255865702984366 0 0 0
3595 21 1 18.309858507777268 25.41161977195681 40.778451566344906 0 0 0
1933 19 1 8.370571380721358 25.38513078646459 39.926297548709144 0 0 1
7723 26 1 6.0922819058097355 18.79734582862354 52.15695108550385 1 0 0
6926 55 1 8.122005459074673 7.133259882177202 49.32935306573416 0 0 0
5401 44 1 1.6347791165310976 16.638685178920447 52.10901844665034 1 0 0
6968 9 1 8.465715045163845 9.226992448388618 54.375118911920076 0 0 0
2370 26 1 18.40116041624229 7.207390336428828 40.48252799326091 0 0 0
1668 15 1 8.27123524954927 20.956722715574898 39.93165123299089 0 0 0
4952 43 1 0.836878072511694 11.259010349447816 51.35138332482143 1 0 0
2630 14 1 14.369283146579244 10.220820279250944 41.55362402485746 0 0 0
141 2 1 12.214343712617257 2.4130681969084704 44.16587880917587 0 0 0
2629 14 1 14.575916728431093 8.974999235531504 40.72633331732431 0 0 0
7051 55 1 7.941287958526918 10.976941269749735 48.8328209587303 0 0 0
1975 20 1 18.42722934212324 26.40484279270414 45.41500749735398 0 -1 0
6963 9 1 4.509145935832452 9.569243235066516 49.51301703058881 0 0 0
6918 55 1 1.185536242561798 7.707673550187231 42.322545021032745 1 0 0
2894 10 1 13.275036322213483 13.789345988196766 40.235762817044964 0 0 0
2895 10 1 14.246636410147675 14.63986734666845 40.953203996710414 0 0 0
2896 10 1 15.166375275226041 13.845010827579927 41.923164969116414 0 0 0
8065 53 1 7.509838383205276 22.635176311980725 54.124782030479444 0 0 0
2898 10 1 16.800689136223717 13.526070439926304 43.60825120185751 0 0 0
8281 64 1 2.612919049033323 24.516327695789975 43.46470886607966 0 0 0
7278 3 1 4.7482671503812535 14.305005036623717 50.76077235112041 0 0 0
6961 9 1 2.4039528318331667 9.578956980663936 47.94354792992581 1 0 0
8058 53 1 1.768362424492532 22.695010495160577 47.396183135200815 0 0 0
9 1 1 14.21847219915843 0.6730864656902027 51.44068463196743 0 0 0
3069 25 1 16.28348541863166 16.061050266266854 38.891750841408665 0 0 1
7277 3 1 5.2545235509930714 13.549390439329562 49.57238996560497 0 0 0
42 1 1 4.731964466981025 26.59269436848747 41.464584395231846 0 -1 0
2893 10 1 12.388908464713433 14.431272937545637 39.26772937525961 0 0 0
7506 59 1 14.469076492320255 16.250162863916543 54.42357997828283 0 0 0
1455 15 1 18.118464567761254 19.8652249642202 49.77087116643091 0 0 0
5705 47 1 1.9490843036344097 20.82662074787373 51.81432325808633 0 0 0
2590 14 1 15.466000844195266 9.089867876006071 43.39262319202922 0 0 0
6964 9 1 5.360174034863645 8.812784586358342 50.487290058164966 0 0 0
6599 53 1 12.85996168813663 2.4239812343720843 54.07360752962531 0 0 0
7276 3 1 4.037003774784557 12.982631882125828 48.78748565360266 0 0 0
8279 64 1 0.9827038533909023 24.78377301638917 41.53429563791862 0 0 0
432 5 1 8.447047192077157 7.868229221439209 39.253431029471535 0 0 0
7724 26 1 6.9124524505555724 17.986245501599857 53.09323628434648 0 0 0
1130 52 1 3.573084639301082 13.97747820652137 40.110303625031634 0 0 1
6966 9 1 6.575540288366821 8.953464867331665 52.74590402699243 0 0 0
8057 53 1 0.9133462613450877 23.58257774763673 46.42770588709334 0 0 0
8007 63 1 0.954853909551546 19.807725400975837 41.547027246962145 0 0 0
912 10 1 8.40702895969347 12.068322458662086 39.76677357115931 0 0 0
145 2 1 16.00193141671525 2.33731881527397 47.39371802546782 0 0 0
8017 63 1 9.769571402668857 20.406466535872 50.48890621891199 0 0 0
7495 59 1 4.285209317668085 16.006085234838814 45.02472481792408 1 0 0
6597 53 1 10.992916637760464 2.3314202700181634 52.35925891870414 0 0 0
8062 53 1 5.410705842694971 22.252000647869405 50.88048135646459 0 0 0
7280 3 1 6.769558406919001 13.84451748120092 52.32586529622415 0 0 0
6813 54 1 4.201965564314186 5.542178327615775 49.917333335381294 1 0 0
7493 59 1 2.472407128242832 15.768157986821654 43.40032682921092 1 0 0
1443 14 1 9.107547016654214 18.462145425368814 45.85911835995344 0 0 0
439 5 1 14.108435366385335 6.548270164510443 46.00141400769703 0 0 0
6374 18 1 5.185904608372686 0.4123008076692313 51.085483476378435 0 0 0
6373 18 1 4.599016437362745 1.2021506182716548 49.8646860699624 0 0 0
7275 3 1 3.2863117461040123 13.784224220246767 47.716698068003204 1 0 0
40 1 1 3.0863784975281283 26.484942181975395 39.48338804622045 0 -1 0
7499 59 1 7.679244552930685 15.853617316327483 48.71915335215675 0 0 0
8010 63 1 2.99954587875237 20.99540395373405 44.616472702358294 0 0 0
5704 47 1 0.9077864378486618 19.950425928845103 51.03260372794379 1 0 0
6962 9 1 3.4919460644360516 8.725738022666736 48.73955003894416 0 0 0
7504 59 1 12.47057046497849 16.54288361160179 52.88942349814459 0 0 0
6928 55 1 9.964166845682744 7.3594295407496935 51.024849012364726 0 0 0
8019 63 1 11.548515920877502 20.09516667069168 52.334484979376924 0 0 0
8012 63 1 4.766354826256396 20.946234281209055 46.284242791547605 0 0 0
6811 54 1 2.4859891168357096 5.427951888406015 47.92656800152382 1 0 0
7722 26 1 5.346660169182437 18.061071545876796 51.099290306109694 1 0 0
8064 53 1 7.23045620580077 22.102596780983372 52.69322891237293 0 0 0
443 5 1 17.64413780225737 6.376828079752878 49.56162475677941 0 0 0
8011 63 1 4.365397466564209 20.422442394798622 44.90418123607565 0 0 0
5706 47 1 2.3865597103248986 20.054671023331334 53.04729309694275 0 0 0
8016 63 1 8.54787564254769 20.954644467318627 49.70963031275741 0 0 0
8289 64 1 9.283077564020804 24.528999366360118 50.96911593853384 0 0 0
6921 55 1 4.12103563657538 6.817480119192331 44.7914008669381 0 0 0
7050 55 1 7.256896408382595 11.790177078385252 47.792834828174165 0 0 0
142 2 1 13.105398189321269 3.220904376982959 45.040505973127786 0 0 0
700 10 1 18.72566086436643 11.89941710579569 50.75878311394128 0 0 0
6924 55 1 6.811045964156527 7.378098211011999 47.29229532463486 0 0 0
7054 55 1 10.42739746059426 11.835982029512515 51.77455568545584 0 0 0
8008 63 1 1.2544728439637436 20.761386062083393 42.71978008171899 0 0 0
7053 55 1 9.551469282709174 11.040178463481148 50.82231245006357 0 0 0
1195 12 1 16.32005638547184 15.639744683981373 47.785829010521624 0 0 0
3107 50 1 16.093818924511304 18.764342247213094 42.844274314687276 0 0 0
4954 43 1 2.7087574053383996 11.45315552125511 52.98358340905071 1 0 0
684 8 1 3.117111816556369 8.77238152305969 39.429186689819424 0 0 1
7717 26 1 0.8941920298702155 18.626454486387786 46.53918832222494 1 0 0
697 10 1 16.073539925265703 10.924607795723645 48.337117457812454 0 0 0
7057 55 1 13.244534702478738 11.075976662871549 54.31884065596154 0 0 0
3817 21 1 16.61691344700441 25.207208795273118 38.93688793943178 0 0 0
4955 43 1 3.580198313107038 12.460509090557263 53.786405034433024 1 0 0
2028 20 1 12.084660019960623 0.8289337423302112 39.291343246559016 0 0 0
7497 59 1 5.987725095120187 15.953701227884348 46.65860198523583 0 0 0
6149 6 1 2.605562843328992 24.598995707392202 53.27353120922592 1 0 0
7049 55 1 6.4231691953512575 10.964287110780127 46.81343947275063 0 0 0
6965 9 1 6.245256919553793 9.623539916784384 51.42559791766339 0 0 0
7498 59 1 6.851041364726283 16.798139778080394 47.755568485893676 0 0 0
8015 63 1 7.789659062444671 20.013651016633517 48.77916261952373 0 0 0
8285 64 1 5.997283388270864 24.58943763598596 47.2427822857521 0 0 0
388 3 1 2.828300643925722 4.123508813892184 39.303091472731175 0 0 0
6592 53 1 6.898408524808775 3.015927648939278 47.94595855091094 0 0 0
6593 53 1 7.856129321802472 2.146269724216805 48.6577637796472 0 0 0
6594 53 1 8.634727373232229 3.1310199223531523 49.49825154903071 0 0 0
6595 53 1 9.42751139805435 2.3523117753947362 50.646742106835845 0 0 0
6596 53 1 10.222128539825848 3.255498275531176 51.57025152076824 0 0 0
143 2 1 14.20931591277299 2.39800811777833 45.61082145632229 0 0 0
685 8 1 4.159076441677536 9.587081259874433 40.20095646375332 0 0 1
6371 18 1 2.521789875158848 1.1174634373826378 48.42332944273389 0 0 0
4059 39 1 3.501183292709156 3.445513188194824 54.26955548213865 1 0 0
390 3 1 4.578375439524928 4.436032069219041 41.14554432480949 0 0 0
1453 15 1 16.405943835380395 19.876527487670067 47.875895742125586 0 0 0
2144 24 1 18.049144193458595 4.32656039976266 45.43741088516259 0 0 0
8063 53 1 6.004300671339755 22.88444907724355 52.20853199528622 0 0 0
687 9 1 5.90348635936199 9.848292381835018 41.69695461434272 0 0 0
4503 43 1 1.2085411779952606 7.069850625007528 51.19823714531641 1 0 0
1197 12 1 18.10058534118799 15.456377750941309 49.40936281711214 0 0 0
6370 18 1 1.8180692772509042 0.18187691308645657 47.43815357630148 1 0 0
10 1 1 15.606620740085768 0.14261827600225432 51.61603756642613 0 0 0
2668 27 1 13.234670192035471 8.900313231342013 39.952326275692215 0 0 1
8009 63 1 2.4924316741472308 20.277124628695812 43.41244502945479 0 0 0
7725 26 1 8.12623532777493 18.669780835354143 53.70070047014376 0 0 0
476 9 1 17.46910253633566 9.015466557905825 53.5023534790968 0 0 0
7492 59 1 1.517288006348267 16.474505808942936 42.41985493451478 1 0 0
4505 43 1 3.1042303680458603 7.045748805784484 52.77878800057948 1 0 0
6930 55 1 11.558008734256207 7.602363143890938 53.11534333943295 0 0 0
12 1 1 17.09597596797997 26.374711943445245 53.64867148213818 0 -1 0
688 9 1 6.741084010215172 9.151523406971325 42.84240697574559 0 0 0
1440 13 1 6.811141315260718 18.204623551892325 42.91697790160753 0 0 1
8014 63 1 6.806763866122974 20.964320014816582 48.015400838281195 0 0 0
8287 64 1 7.677941754419615 24.530258639954294 49.0899783723607 0 0 0
7047 55 1 4.436459693523698 11.220838686520937 44.9859194827359 1 0 0
8288 64 1 8.483572371710453 25.45454411633567 50.0070999576513 0 0 0
2897 10 1 15.945810323858382 14.59940492206027 42.9744819849139 0 0 0
179 3 1 16.500225793520464 5.097404058595816 52.82274483944809 0 0 0
468 5 1 7.321568058344403 6.923995747230598 38.77174916865023 0 0 0
6929 55 1 10.644758936870375 6.7660479518876455 52.26705801845617 0 0 0
699 10 1 17.848620843364866 10.86640957895678 50.053700159207 0 0 0
8293 64 1 12.990646314893928 24.758555834071625 54.29554931356656 0 0 0
1683 18 1 17.86699531661661 22.777800543991 54.53352190617147 0 0 0
6931 55 1 12.5058951973858 6.563339290681108 53.727154342793106 0 0 0
1667 34 1 7.541906933772651 20.072415464234613 38.87781753401204 0 0 1