LAMMPS data file via write_data, version 23 Jun 2022, timestep = 1000

8487 atoms
2 atom types
8471 bonds
3 bond types
8455 angles
3 angle types
8439 dihedrals
3 dihedral types

0 36.89775039 xlo xhi
0 26.67072 ylo yhi
0 236.7516044 zlo zhi
0 7.448720975 0 xy xz yz

Masses

1 14
2 15

Pair Coeffs # lj/cut/omp

1 0.0914 3.95
2 0.1947 3.75

Bond Coeffs # harmonic/omp

1 449.5 1.53
2 449.5 1.53
3 449.5 1.53

Angle Coeffs # harmonic/omp

1 62.0967 114
2 62.0967 114
3 62.0967 114

Dihedral Coeffs # opls/omp

1 1.411 -0.271 3.145 0
2 1.411 -0.271 3.145 0
3 1.411 -0.271 3.145 0

Atoms # molecular

1 55 1 7.82343960311703 1.2412162272836627 8.220783243269517 0 0 0
2 55 1 9.001696456420795 0.6534134313494439 8.918394067662607 0 0 0
3 55 1 8.859900065834683 1.0409310970363097 10.369814672010284 0 0 0
4 55 1 10.162805050181662 0.7027537713442172 11.117245293786482 0 0 0
5 55 1 10.035165979237114 0.9586209810316849 12.63010720833034 0 0 0
6 55 1 11.35049873697988 0.5540424789686799 13.343640828514085 0 0 0
7 55 1 11.311749737415905 0.8861294986405254 14.825444332960835 0 0 0
8 55 1 12.600855747082113 0.44763820322532044 15.499177566834089 0 0 0
9 55 1 12.70389693046101 0.9338478182407046 16.924578344633687 0 0 0
10 55 1 14.09269991688477 1.0381251903898112 17.503066841790684 0 0 0
11 55 1 14.12120637848611 1.3023506926024848 18.986275920506486 0 0 0
12 55 1 15.453168708159588 1.3670318983521066 19.640346262624004 0 0 0
13 55 1 15.393186989690632 1.428604035643052 21.128565687870736 0 0 0
14 55 1 16.703853553534774 1.062839209736807 21.890085643948424 0 0 0
2034 14 1 1.6616589962679857 23.491867323141104 0.153852220731502 0 0 1
6987 54 1 0.6240891687676361 9.66817195198758 11.226580015991182 0 0 0
218 55 1 3.2673379431377785 0.747235148258295 0.4230501276428772 0 0 0
219 55 1 3.3484893994455387 1.2675488377268023 1.8501446632827383 0 0 0
220 55 1 4.627497014969329 0.9354071181618023 2.5596512971405367 0 0 0
221 55 1 4.912397806439337 1.5615448435509984 3.951833038980099 0 0 0
222 55 1 6.136656726251866 0.9367708088997811 4.657109385730718 0 0 0
223 55 1 6.597076761385937 1.5487258142160367 5.974721477817025 0 0 0
224 55 1 7.563709482099308 0.7300573520099901 6.789509410501157 0 0 0
225 3 1 10.558525188473034 3.0419533815845288 6.162698575868108 0 0 0
226 3 1 11.85197554849939 3.580300054679565 6.812176071857133 0 0 0
227 3 1 11.967021858159669 3.257377918669924 8.289013955999897 0 0 0
228 3 1 13.273324447661457 3.6827457764039266 9.021434301196784 0 0 0
229 3 1 13.572848875646763 3.1995916972228478 10.475714115749325 0 0 0
230 3 1 14.91139260758219 3.540388854714448 11.057256402153868 0 0 0
231 3 1 14.819108675806227 3.451581117173256 12.579768288567823 0 0 0
232 3 1 16.07488838485676 3.483005181384921 13.429637814446432 0 0 0
233 3 1 15.93722851753804 3.309766652658815 14.912877314140168 0 0 0
234 3 1 17.310044673737437 3.4625351667703006 15.557359040874559 0 0 0
235 3 1 17.28267668798299 3.266416880653898 17.06823112775347 0 0 0
1976 64 1 3.0301587428896792 23.249558012465858 0.722047759687882 0 0 0
8436 64 1 4.056889852779187 25.088757600511038 9.994004319112323 0 0 0
444 3 1 7.920398357751573 3.4931691010287085 0.22578640943924158 0 0 0
445 3 1 7.915258490947609 3.1785139681291117 1.690181417512969 0 0 0
446 3 1 9.209782207975099 3.472995518153611 2.4599301485453875 0 0 0
447 3 1 9.226128279702387 3.149098237993458 3.9293285708792243 0 0 0
448 3 1 10.511920868952458 3.4482633256839943 4.694581512154879 0 0 0
449 4 1 7.520751706088906 5.623741736519383 8.48241060602645 0 0 0
450 4 1 8.754023368043647 5.142697656650444 9.240950937699028 0 0 0
451 4 1 8.740571062286522 5.358147345446753 10.745031002878273 0 0 0
452 4 1 10.033401231304095 5.000158343704772 11.522469608213909 0 0 0
453 4 1 10.061922246735605 5.232037459763594 13.090337737679084 0 0 0
454 4 1 11.407111353519227 5.291427268938372 13.747636902386851 0 0 0
455 4 1 11.375533802120652 5.689113940799484 15.214145560590154 0 0 0
456 4 1 12.743096113795904 5.512435688469274 15.906208847674856 0 0 0
457 4 1 12.972673983757842 5.862040488840128 17.392699856178243 0 0 0
458 4 1 14.381582877298024 5.653428508869915 17.97932201196704 0 0 0
459 4 1 14.44887615562422 5.8244401402842705 19.50816886067819 0 0 0
460 4 1 15.70677269330918 5.468689255240797 20.223205261128605 0 0 0
461 4 1 15.630227821329504 5.707201899616394 21.704149464823104 0 0 0
462 4 1 17.003384175839734 5.892815826956165 22.348443392247518 0 0 0
1436 9 1 18.592580155964654 16.09211722402473 18.945499971388866 0 0 0
8435 64 1 4.02726317578043 25.689982835614785 8.608363263791693 0 0 0
666 4 1 3.0188110258995726 5.386513490957637 0.6178188527668864 0 0 0
667 4 1 3.1169623710864394 5.563546898886295 2.1733154904836613 0 0 0
668 4 1 4.5225702100263865 5.4366564464607 2.73272550983658 0 0 0
669 4 1 4.555276265286537 5.69905108705754 4.214712366052998 0 0 0
670 4 1 5.903493632536699 5.460227965258999 4.835638210021925 0 0 0
671 4 1 6.072517786523222 5.746218128230856 6.344651674168355 0 0 0
672 4 1 7.445231638995108 5.318058942150932 6.9587959284038625 0 0 0
715 5 1 10.68395830199982 7.37193707646258 5.870068991583726 0 0 0
716 5 1 11.882335418358185 7.877594602226631 6.619406026480339 0 0 0
717 5 1 11.880586316125246 7.411020911420174 8.036204457100649 0 0 0
718 5 1 13.192257859804618 7.835925424750689 8.757702681339934 0 0 0
719 5 1 13.152965059757017 7.487918377790282 10.26121097545011 0 0 0
720 5 1 14.496255005784834 7.494563871518321 11.118181056224747 0 0 0
721 5 1 14.483927183117228 7.2041406653264035 12.601938827785851 0 0 0
722 5 1 15.912594695466796 7.204504348340952 13.2184717579529 0 0 0
723 5 1 15.888279545439863 7.185305962099451 14.771510858988492 0 0 0
724 5 1 17.260210128711034 7.188655739371896 15.436985489987332 0 0 0
725 5 1 17.2814934673099 7.789491240062893 16.858993275541177 0 0 0
4383 33 1 15.599301118230061 25.908172725211614 0.20714169249186268 0 0 1
3832 28 1 18.373949759162798 21.6384556004867 2.6435288449905956 0 0 0
7878 58 1 0.842309551234768 18.64463968643889 10.793355112607703 0 0 0
748 5 1 7.896151279930948 7.114335634651656 1.865285106735305 0 0 0
749 5 1 9.113758782233877 7.670963634878552 2.5600498479436684 0 0 0
750 5 1 9.40771774871203 7.077168078316493 3.933633970102017 0 0 0
751 5 1 10.66120670463146 7.704153877127851 4.448883347646923 0 0 0
752 60 1 7.198707519605823 9.945702098157188 8.149386787563872 0 0 0
753 60 1 8.624411902261507 10.015334376724976 8.780276157077404 0 0 0
754 60 1 8.58373059070759 9.92931945261843 10.330189878689183 0 0 0
755 60 1 9.944322543070076 9.813650946149432 11.016082761014728 0 0 0
756 60 1 9.93665586165165 9.553688118442995 12.541660681779168 0 0 0
757 60 1 11.343027271174137 9.689554060059534 13.145080523664758 0 0 0
758 60 1 11.411400250687018 9.544560846073768 14.653689788996502 0 0 0
759 60 1 12.701087237180403 9.437467525507577 15.452815947386389 0 0 0
760 60 1 12.53423280800959 9.571468718869058 16.929153618200687 0 0 0
761 60 1 13.877623870348536 9.764379784512462 17.570678208890083 0 0 0
762 60 1 13.83615133206331 9.68001875099207 19.063596252587956 0 0 0
763 60 1 15.2247372216504 9.747327546413553 19.653567091898132 0 0 0
764 60 1 15.235979014749656 9.916313158430754 21.221086654327685 0 0 0
765 60 1 16.628398972739568 9.798357474783149 21.90334705787505 0 0 0
766 60 1 16.69425635160657 10.22498284291955 23.345044798896115 0 0 0
3385 26 1 18.10959752885709 16.33571620184691 3.3777062029982434 0 0 0
1734 13 1 18.53951638732975 21.04419333283226 18.75461791607175 0 0 0
970 60 1 3.2259536379141105 9.838569473456316 1.6195951747645563 0 0 0
971 60 1 4.621261958965956 9.566787436438124 2.2356511901679497 0 0 0
972 60 1 4.648810287995858 9.794731618236586 3.7395890790386863 0 0 0
973 60 1 5.965821095394094 9.494883815088256 4.395660211636487 0 0 0
974 60 1 5.860392731246218 9.69774133162625 5.934221844737712 0 0 0
975 60 1 7.223076177935629 9.578644813037744 6.6562936956234315 0 0 0
976 7 1 10.214928445571557 11.613215333831029 5.879913060892479 0 0 0
977 7 1 11.47557538325886 12.127270894437844 6.573810850475522 0 0 0
978 7 1 11.685898828883374 11.538081835775222 7.9398731743954265 0 0 0
979 7 1 12.946370634798985 12.0486429811514 8.57966645128011 0 0 0
980 7 1 13.140174605126385 11.763710025148475 10.067093065101108 0 0 0
981 7 1 14.344109248201555 12.269238629937243 10.868389452709021 0 0 0
982 7 1 14.492028742691714 11.705198076503203 12.307071320029092 0 0 0
983 7 1 15.736160890762534 12.244382727586608 13.048985784116967 0 0 0
984 7 1 15.945650147175611 11.711012737632508 14.490270335991653 0 0 0
985 7 1 17.183735112938752 12.288426240355346 15.163749481468294 0 0 0
986 7 1 17.252540958044357 11.836048946693316 16.62670426049333 0 0 0
1195 7 1 7.616489940941025 12.12545909212301 0.17820423313388986 0 0 0
969 60 1 3.1527863463850334 9.705689170031158 0.09896511365693683 0 0 0
2717 51 1 17.529252645447322 9.833708383823643 10.938746500025234 0 0 0
1196 7 1 7.524789896431607 11.826120287237295 1.674997405052757 0 0 0
1197 7 1 8.643080851758388 12.479042272388996 2.429413897958445 0 0 0
1198 7 1 8.721158971485611 11.969773426920524 3.831394342978102 0 0 0
1199 7 1 10.096551307875945 12.076586101338899 4.43648965091712 0 0 0
1200 9 1 7.545898776622356 14.664229310585771 8.021598899477718 0 0 0
1201 9 1 8.206674980304737 13.805921691131955 9.120894470998952 0 0 0
1202 9 1 8.760748408913747 14.562200612276667 10.330070593832314 0 0 0
1203 9 1 9.813263944815585 13.757437262052084 11.111000924796974 0 0 0
1204 9 1 10.374646356775164 14.606810964757555 12.230278855677998 0 0 0
1205 9 1 11.197669693145022 13.788486758406068 13.230265836789282 0 0 0
1206 9 1 11.546809563151424 14.62110214434401 14.494672003771766 0 0 0
1207 9 1 12.487206009223799 13.844339137728362 15.442023431012215 0 0 0
1208 9 1 12.853914874052077 14.776146785914058 16.65278901125135 0 0 0
1209 9 1 13.759641199100345 13.956961423365152 17.512779913176473 0 0 0
1210 9 1 14.116716844441811 14.778458852167354 18.760920515864708 0 0 0
1211 9 1 15.021602961387721 14.043458518381213 19.762051246992876 0 0 0
1212 9 1 15.47100966901139 14.785952659989444 20.99339207332874 0 0 0
1213 9 1 16.52280256898589 14.101600841957037 21.799224711994956 0 0 0
1214 9 1 16.80801204952437 14.734266795092672 23.152418734729476 0 0 0
8447 64 1 11.704530912181804 25.90266901392303 21.798030372517157 0 0 0
1417 9 1 2.6006582241480656 14.048271785483482 0.6320679285341134 0 0 0
1418 9 1 3.564681516561448 14.768780488544673 1.5116359770648693 0 0 0
1419 9 1 4.416594118584844 13.970390834941384 2.4991360837060173 0 0 0
1420 9 1 4.992574837875848 14.880850712192762 3.5785137466997927 0 0 0
1421 9 1 5.59792055651684 14.036484898573784 4.687762173035857 0 0 0
1422 9 1 6.249009507658546 14.83180631032144 5.822689287839486 0 0 0
1423 9 1 6.802858142001208 13.910853983253062 6.928483991942886 0 0 0
1424 9 1 10.566386252703708 16.213341957419477 5.77691077318826 0 0 0
1425 9 1 11.249293439655181 17.019162390688148 6.877138583493791 0 0 0
1426 9 1 12.045399714944793 16.17893468014981 7.780822491104565 0 0 0
1427 9 1 12.722401511830924 16.95820869303261 8.902052454381316 0 0 0
1428 9 1 13.435793631978914 16.08790099861676 9.935724218428314 0 0 0
1429 9 1 14.256656787966817 16.84138340136237 11.000512243869592 0 0 0
1430 9 1 14.869167439494127 16.029763766904928 12.170246571570818 0 0 0
1431 9 1 15.779829814267723 16.70286065057904 13.12778128913057 0 0 0
1432 9 1 16.399980313419864 15.881255919186874 14.27791460956494 0 0 0
1433 9 1 17.313721075704194 16.62874664362679 15.229335621143635 0 0 0
1434 9 1 17.37810084432169 16.0374111226148 16.65714555148628 0 0 0
1435 9 1 18.433925983810813 16.671515568030927 17.580078348397148 0 0 0
8434 64 1 2.6887453825184298 25.35066796739272 7.84264151857836 0 0 0
1643 9 1 7.127706741168528 17.14816918639937 0.4701579313268849 0 0 0
1644 9 1 7.870479449620397 16.163684231842907 1.4164356286755937 0 0 0
1645 9 1 8.503121305713949 16.91483511265491 2.552327252402617 0 0 0
1646 9 1 9.259582958522314 16.134471436850326 3.6011744394907663 0 0 0
1647 9 1 9.97062483707669 16.9879131020553 4.620787128252506 0 0 0
1648 11 1 7.774976789582807 19.115968493064447 8.601097328700002 0 0 0
1649 11 1 8.689481280379454 18.34742421599666 9.506550075656472 0 0 0
1650 11 1 9.361201175082766 19.301006853174155 10.552402015501556 0 0 0
1651 11 1 10.280149469664185 18.631292003044315 11.642004329430566 0 0 0
1652 11 1 10.587026419372451 19.339444969596073 12.95511964724794 0 0 0
1653 11 1 11.657559592429758 18.640683418643675 13.863608471339248 0 0 0
1654 11 1 11.74515005634547 19.177519019118968 15.297984310312806 0 0 0
1655 11 1 12.821687803712141 18.440884695565423 16.068347673902355 0 0 0
1656 11 1 13.192737980300526 19.129458011963212 17.372534002146597 0 0 0
1657 11 1 14.13862806143263 18.359732434546316 18.28474685684796 0 0 0
1658 11 1 14.545097423435571 19.087579679267144 19.54850541789594 0 0 0
1659 11 1 15.669285371495912 18.526812065577946 20.379957082938482 0 0 0
1660 11 1 15.87839138302289 19.20984060238876 21.730047918397222 0 0 0
1661 11 1 17.071858442321684 18.780054308316302 22.65185921198612 0 0 0
3827 27 1 11.321431079106246 18.334917768755005 0.07369139460156823 0 0 1
8433 64 1 2.4773138621095727 26.069581645092715 6.4810056961479665 0 0 0
1678 11 1 2.9781042805815816 19.00825064564563 1.0080980899131136 0 0 0
1679 11 1 3.5411272410327603 19.717129273442946 2.2835159546267794 0 0 0
1680 11 1 4.738362319231501 19.08014544988906 2.9718469831909 0 0 0
1681 11 1 5.193319357396383 19.60127022325206 4.315313236175282 0 0 0
1682 11 1 6.140573291354768 18.66445148871802 5.105566925654321 0 0 0
1683 11 1 6.715817356697655 19.287841633136985 6.420827032088325 0 0 0
1684 11 1 7.324658044127491 18.315381959326917 7.415043185024949 0 0 0
1722 13 1 10.65856404646864 20.727856370178333 5.826314388608432 0 0 0
1723 13 1 12.041320203583151 20.88547475432976 6.37539897212165 0 0 0
1724 13 1 12.147458412610526 20.724560898743274 7.9089639610915 0 0 0
1725 13 1 13.435266601580379 21.094640931506 8.608146498414456 0 0 0
1726 13 1 13.410033593629114 20.820549311718818 10.077735545699218 0 0 0
1727 13 1 14.619590057444912 21.510714536408376 10.754282749973667 0 0 0
1728 13 1 14.771138539937665 21.07200886397182 12.221778611508947 0 0 0
1729 13 1 15.947061518774813 21.70753351005617 12.979890076204285 0 0 0
1730 13 1 16.140320930320303 20.91955018218176 14.310035464932149 0 0 0
1731 13 1 17.16607699610889 21.65444031364302 15.178840753102804 0 0 0
1732 13 1 17.32504535933147 20.957598881252274 16.527925447618124 0 0 0
6956 49 1 12.177394306879275 7.800832335903576 23.52407608510926 0 0 0
987 7 1 18.537011099827918 12.24546069224282 17.32416360616022 0 0 0
1941 13 1 7.45670487908402 21.16973686365043 0.20494199761348564 0 0 0
1942 13 1 7.473687999100074 21.088972768152672 1.7455744809090261 0 0 0
1943 13 1 8.90214563046592 21.21896067459051 2.292648878845028 0 0 0
1944 13 1 9.107128262243169 20.91622210528398 3.7784636217215226 0 0 0
1945 13 1 10.53656050915672 21.022451289540815 4.365664319162845 0 0 0
1946 64 1 7.39366723085264 23.42155002331814 8.538365274578718 0 0 0
1947 64 1 8.772434033408189 23.134057954029497 9.098182627133935 0 0 0
1948 64 1 8.77647222698624 23.363957945386378 10.634900641033243 0 0 0
1949 64 1 10.015348894282829 23.012642751473205 11.404714143267922 0 0 0
1950 64 1 9.850103967549613 23.27159501765724 12.892342809135071 0 0 0
1951 64 1 11.195282355918058 23.11658940966431 13.697271426883157 0 0 0
1952 64 1 11.226934162458726 23.184706254636748 15.226818574185703 0 0 0
1953 64 1 12.573284127956358 22.791284111377074 15.893874072656097 0 0 0
1954 64 1 12.6161079990722 22.906047662574572 17.42194370431799 0 0 0
1955 64 1 13.938335736421864 23.01282174383289 18.114405334936865 0 0 0
1956 64 1 13.980473121051691 23.23987093596168 19.613524847056304 0 0 0
1957 64 1 15.387308683816723 23.382086129250364 20.220964650365286 0 0 0
1958 64 1 15.456383992208027 23.53070980033324 21.728432166145748 0 0 0
1959 64 1 16.774911540399895 23.400119146755127 22.401980124381517 0 0 0
7205 56 1 0.10792941301477224 12.247581553344062 2.409431565121014 1 0 0
988 7 1 18.65636926520184 12.005298899595143 18.804977234743607 0 0 0
8189 62 1 6.084209439840032 22.485100574346674 19.53600548317842 0 0 0
1977 64 1 3.1460330646094636 23.81821268912022 2.1067634863541382 0 0 0
1978 64 1 4.440607216657147 23.349497766710652 2.7157125639422395 0 0 0
1979 64 1 4.649416631590975 23.789335421336535 4.157066694579541 0 0 0
1980 64 1 5.961000132632352 23.26980116186231 4.854301242423995 0 0 0
1981 64 1 6.140924015162628 23.558807630543594 6.377171754798619 0 0 0
1982 64 1 7.413940680851729 23.18095939421724 7.015494145170725 0 0 0
2035 3 1 11.144239870099888 24.74672362990925 6.096146288909517 0 0 0
2036 3 1 11.822611609078239 25.64706826976037 7.127661855395199 0 0 0
2037 3 1 12.233067237748031 24.89222075094188 8.355591207805213 0 0 0
2038 3 1 13.187124711565492 25.737404834578204 9.224255801282867 0 0 0
2039 3 1 13.338543567887797 25.183859783543838 10.660195968717652 0 0 0
2040 3 1 14.62466449500368 25.637798146510846 11.326316856786107 0 0 0
2041 3 1 14.75622204656454 25.39863960922898 12.844531695479125 0 0 0
2042 3 1 15.991441911768636 25.960150288940405 13.44576079173365 0 0 0
2043 3 1 16.116441762030526 25.700907960248674 14.900430145111809 0 0 0
2044 3 1 17.422074736149263 26.09781114589423 15.6094084047121 0 0 0
2045 3 1 17.500301599300833 25.81299556238882 17.107619195946842 0 0 0
2633 20 1 18.21270085480462 7.720994513067878 3.4701331561819737 0 0 0
8448 64 1 11.95609720274594 25.32377934728819 23.18763437638898 0 0 0
2254 3 1 7.778164816970052 25.643872665257756 0.5839008701399652 0 0 0
2255 3 1 8.211197170052136 24.901780937704146 1.8815378456674887 0 0 0
2256 3 1 9.083481698653236 25.69324852622077 2.873046317005452 0 0 0
2257 3 1 9.719694099931777 24.817410218454967 3.9249911917701295 0 0 0
2258 3 1 10.608317768891434 25.560094522319098 4.918493275108432 0 0 0
2259 31 1 13.750639906800926 1.421371643032897 4.08174623162349 0 0 0
2260 31 1 14.980921134551489 0.796233711710077 4.711079365965286 0 0 0
2261 31 1 15.252806518647573 1.2321365175390366 6.172311403225388 0 0 0
2262 31 1 16.711322227809486 1.131650026991822 6.662582770433283 0 0 0
2263 31 1 16.74298842677316 1.2518340460148396 8.157226433812015 0 0 0
2264 31 1 18.104711442600582 1.1143580082018172 8.867433069721162 0 0 0
2265 31 1 18.063709310025267 1.0571335990306725 10.402340217407781 0 0 0
2293 31 1 12.256512976760686 1.300462189710773 0.40153537639154374 0 0 0
2294 31 1 12.392533328035551 1.6992397280390201 1.894026916687849 0 0 0
2295 31 1 13.72071164263713 1.2361267171925192 2.5782483511702403 0 0 0
2333 17 1 17.012585800962494 3.253384491460012 1.5638243368885187 0 0 0
2334 17 1 18.27307808679088 3.9105679901306565 2.158042681221827 0 0 0
2369 17 1 16.67763057855442 3.856720069768535 0.17192459073829613 0 0 0
7224 56 1 12.331420467656944 12.102650561103284 23.615141514350142 0 0 0
2407 4 1 13.892321334411271 5.603949512229433 3.9626801746061697 0 0 0
2408 4 1 15.240566593987241 5.2736440370090145 4.565757526972929 0 0 0
2409 4 1 15.471116418546128 5.672709990191285 6.030850010892348 0 0 0
2410 4 1 16.776958212490957 5.335504700447507 6.795299419237259 0 0 0
2411 4 1 16.92686892836568 5.727863920296261 8.266537169281532 0 0 0
2412 4 1 18.20742868608332 5.442533136666942 9.058218414671197 0 0 0
2413 4 1 18.244441396859663 5.781557943376342 10.5772131401373 0 0 0
8184 62 1 2.5257563268392356 22.995689246145098 14.384838305339244 0 0 0
2629 4 1 12.555876399294275 5.631438557037354 1.7795858965774267 0 0 0
2630 4 1 13.841444305911624 5.330187427369892 2.4802821007605105 0 0 0
2631 20 1 16.86338751265896 7.585532816380645 1.3418050205200809 0 0 0
2632 20 1 17.688882069280755 8.460468131057008 2.227767528492763 0 0 0
8187 62 1 5.009850082579428 22.31545882123956 17.342971482160767 0 0 0
1721 8 1 1.7162230032567702 19.576668315308957 0.3489357227834824 0 0 1
2711 51 1 13.844865306091563 10.176361990916606 4.011502794233586 0 0 0
2712 51 1 15.027169642271348 9.76603069421468 4.887986988062297 0 0 0
2713 51 1 15.011305262404973 10.157208407579255 6.356766883778586 0 0 0
2714 51 1 16.37746724426874 9.95264900457028 7.05530584900264 0 0 0
2715 51 1 16.37838765083706 10.10247174185263 8.60734823265693 0 0 0
2716 51 1 17.66533809486379 9.851985985887978 9.409633174938337 0 0 0
2628 4 1 12.419524509118158 5.217233769967944 0.28078848487871294 0 0 0
2932 51 1 12.232219182301515 9.58575106404203 0.4228508269089504 0 0 0
2933 51 1 12.46963854511998 10.308425230569839 1.7919491197689663 0 0 0
2934 51 1 13.659474721306102 9.690184769476646 2.585533787064842 0 0 0
2935 42 1 16.559377305028814 12.193786166679535 1.45112472315409 0 0 0
2936 42 1 17.83882028767371 12.612596396730295 2.2198688452989237 0 0 0
747 5 1 7.764713458758897 7.755923371354245 0.4984319588763373 0 0 0
8183 62 1 2.186616896872758 22.444056892117025 13.025620979469494 0 0 0
3159 24 1 13.78429820866857 14.510444019139264 4.1793777340361595 0 0 0
3160 24 1 14.62319095047703 13.67940160107194 5.098973552390566 0 0 0
3161 24 1 15.465903132356797 14.52332807775259 6.02438561662737 0 0 0
3162 24 1 16.035134413667663 13.815918316490139 7.2881622732051605 0 0 0
3163 24 1 16.769810152614426 14.76557508932032 8.205727295061813 0 0 0
3164 24 1 17.314330320904336 14.05791260871091 9.465365952607 0 0 0
3165 24 1 18.316492970117203 14.896780183282662 10.3291613188931 0 0 0
3380 24 1 11.924133688923439 13.695218921039725 0.791864033025238 0 0 0
3381 24 1 12.374027093564731 14.5056373429636 1.9878635301125231 0 0 0
3382 24 1 13.090695909241978 13.710219518935048 3.0846213035299437 0 0 0
3383 26 1 16.718120978922066 16.16446119712916 1.2828930296255872 0 0 0
3384 26 1 17.991988110149723 16.721089810531844 1.9278524769274181 0 0 0
2047 3 1 18.828240862425503 25.712198355908647 19.163842081772195 0 0 0
726 5 1 18.6103564900753 7.638238372700826 17.590344349491062 0 0 0
3607 56 1 14.182066887821112 18.57705219624555 4.423333472891442 0 0 0
3608 56 1 15.594985755097275 18.63298166043632 5.035988706906982 0 0 0
3609 56 1 15.6609607190594 18.474637586516174 6.597528631887211 0 0 0
3610 56 1 16.955252001843583 18.9333420047738 7.252256046949208 0 0 0
3611 56 1 17.003592194542495 18.735678949114458 8.768614585942544 0 0 0
3612 56 1 18.279662868231128 19.198657836012714 9.531069056770283 0 0 0
3613 56 1 18.271162767081094 18.935013109840146 11.016061199626435 0 0 0
3828 56 1 12.777728005178842 18.470872347503747 0.6468788835376795 0 0 0
3829 56 1 12.873988461005158 18.42895869580523 2.206274834434992 0 0 0
3830 56 1 14.214309250152029 18.44873420451943 2.8711700450152238 0 0 0
3831 28 1 17.28283447636392 20.932314859335055 1.8507786056619693 0 0 0
7435 26 1 0.9860653963686972 14.286267366389252 10.861820478882207 0 0 0
8191 62 1 7.249776510137068 22.611612742859442 21.854218258420623 0 0 0
4054 28 1 16.98085554773173 21.592715152869122 0.5067472994682416 0 0 0
4055 31 1 13.92835143549349 23.703417997650945 3.331331912646074 0 0 0
4056 31 1 14.784769490948873 22.90430065895932 4.289737604974873 0 0 0
4057 31 1 15.373072434598921 23.607876568971907 5.547574093916081 0 0 0
4058 31 1 16.190654094063724 22.862148739014334 6.629254770307767 0 0 0
4059 31 1 16.815581743466637 23.8238069179143 7.676048709519898 0 0 0
4060 31 1 17.82516244262011 23.042634714855353 8.60553936948637 0 0 0
4061 31 1 17.87568313635472 23.69078185067962 9.996849044006819 0 0 0
15 55 1 16.759585343940586 1.210027574401714 23.408841798066295 0 0 0
4277 31 1 12.470324980150238 23.30676377631143 1.2085934443438135 0 0 0
4278 31 1 13.425360064494136 22.740919524975787 2.219611328987017 0 0 0
4279 32 1 17.191864517576327 25.43473580949889 2.267466618584205 0 0 0
8186 62 1 3.9070065981652076 22.914044138454692 16.52611564194161 0 0 0
8432 64 1 1.0617918876728232 25.890336745656768 5.907175790990319 0 0 0
4315 32 1 17.007587585257564 25.8814030887803 0.8147803573547524 0 0 0
4629 11 1 1.5811909884033195 3.4051586809170087 19.932944517843755 0 0 0
4630 11 1 1.9014764114005942 2.6809762090760776 21.25603829685092 0 0 0
4631 11 1 3.1522489605887003 3.1496166441874665 21.916108324199794 0 0 0
4632 11 1 3.3245482416028485 2.795987110119812 23.389212501477317 0 0 0
8446 64 1 10.726688197582828 25.05710294922464 20.996069278905605 0 0 0
5077 38 1 1.0237825753765741 8.113418146883951 19.276205787756513 0 0 0
5078 38 1 1.1952612996502878 7.5175061647862735 20.663858396975385 0 0 0
5079 38 1 2.5304063646349664 7.747577592386044 21.302643724719164 0 0 0
5080 38 1 2.789493589764046 7.331177221786254 22.729941284969755 0 0 0
7952 60 1 0.3313535896532762 20.69359843796155 3.904255748614647 1 0 0
5387 32 1 0.8595328836954057 12.349219435817453 19.309141972372103 0 0 0
5388 32 1 0.747219591174945 11.974778702106875 20.79322552955826 0 0 0
5389 32 1 2.045685793276359 12.03025139154805 21.610470153658298 0 0 0
5390 32 1 1.9487046776105188 11.922845910859067 23.080554995588535 0 0 0
8185 62 1 3.6680010103834286 22.27891847916094 15.190298852511567 0 0 0
5572 42 1 1.52202094178055 16.51786661712747 19.964900833482773 0 0 0
5573 42 1 1.4876826825050915 16.19858665645085 21.46107188935483 0 0 0
5574 42 1 2.864238100298558 16.23232520385653 22.132393511234103 0 0 0
5575 42 1 2.7522763792534657 16.520573633043426 23.59384517607294 0 0 0
8188 62 1 5.045684158677864 23.153859533105543 18.66616962739923 0 0 0
5870 48 1 1.5867100815871635 21.558638758324435 19.550068337553217 0 0 0
5871 48 1 1.7794846321228952 21.064196099031527 21.01806187635272 0 0 0
5872 48 1 2.952877598306091 21.7261309658614 21.708535887762494 0 0 0
5873 48 1 2.952794613324191 21.13721068949732 23.128587781715925 0 0 0
8431 64 1 1.0146106645395074 26.186577688002874 4.402914513387881 0 0 0
6168 62 1 1.7463186480007575 25.633654583032456 19.97560497231004 0 0 0
6169 62 1 1.891858332870446 25.375252701039525 21.4830365148926 0 0 0
6170 62 1 3.1357090637165133 25.948729996335324 22.154051222119655 0 0 0
6171 62 1 3.295430481546715 25.52835415296533 23.637543639287227 0 0 0
8190 62 1 6.061510774807973 23.03535693312574 20.966579906095514 0 0 0
6386 48 1 0.8880452001886918 1.111426912028795 11.536563829778565 0 0 0
6387 48 1 1.237507984526672 1.5627571659328876 12.941687489140001 0 0 0
6388 48 1 2.4167566688820132 0.9040723422715736 13.641681231520648 0 0 0
6389 48 1 2.844961856592191 1.3155503799205164 15.054109334213097 0 0 0
6390 48 1 3.9839513828710493 0.620033131923311 15.764039737067801 0 0 0
6391 48 1 4.134329746064925 1.0107849646374927 17.22481223641344 0 0 0
6392 48 1 5.336528050420705 0.42525213691986014 17.952621953455782 0 0 0
6393 48 1 5.283080913786929 0.9285975518992546 19.359010316872297 0 0 0
6394 48 1 6.60907976619611 0.7457613394171273 20.174941083464592 0 0 0
6395 48 1 6.640809696621113 1.1665250124878432 21.666435795517355 0 0 0
6396 48 1 7.9417218106430845 0.9320644880396015 22.303282261393157 0 0 0
8182 62 1 1.1176128725818564 23.293339591154886 12.353015741420363 0 0 0
7654 58 1 0.3612733327679876 16.185135524868596 4.094065967620562 1 0 0
6606 12 1 1.3734954055771307 3.453719903308738 4.977255806764365 0 0 0
6607 12 1 1.486336371273914 3.5984555220873853 6.479647302912213 0 0 0
6608 12 1 2.8499835986212783 3.2775162444047368 7.141444437675276 0 0 0
6609 12 1 2.84685931334814 3.3966673425862375 8.68321470906564 0 0 0
6610 12 1 4.23926626049568 3.2374067635488397 9.408294307178396 0 0 0
6611 12 1 4.107590947493574 3.3750076106458033 10.89272767204989 0 0 0
6612 12 1 5.459135951939228 3.192552110567826 11.55732390612263 0 0 0
6613 12 1 5.519700157296087 2.7883262857296485 13.004948855208712 0 0 0
6614 12 1 6.942047639795351 2.995395484434504 13.53832141943873 0 0 0
6615 12 1 7.021765239772459 2.8877321436371264 15.067711133432766 0 0 0
6616 12 1 8.372287688555806 3.255076094151215 15.72648080601216 0 0 0
6617 12 1 8.376750269019961 2.996779404218403 17.271276700183904 0 0 0
6618 12 1 9.665864958705294 3.4117932315552126 17.88175346687585 0 0 0
6619 12 1 9.839971359238746 2.895035765926675 19.32046827104799 0 0 0
6620 12 1 11.053335607987256 3.4745735112623635 20.086559834116798 0 0 0
6621 12 1 11.17845512360098 3.0732456930667467 21.553879215609918 0 0 0
6622 12 1 12.098954379757075 3.8643512717145456 22.450303919135337 0 0 0
6829 51 1 0.6991610821970926 5.657288859756372 11.272767643772129 0 0 0
8445 64 1 10.431780274555049 25.670425247420205 19.57255122569028 0 0 0
5081 38 1 4.099354579195161 7.694224563617339 23.35926089173298 0 0 0
6830 51 1 0.6339709968183039 5.6636108322342915 12.80976341240285 0 0 0
6831 51 1 1.9762804980344624 5.452333922244402 13.535373508012318 0 0 0
6832 51 1 2.0326627140239095 5.758819282023232 14.976173867026938 0 0 0
6833 51 1 3.2183594078920277 5.129269720067364 15.694670951081388 0 0 0
6834 51 1 3.385265490738683 5.6180373564202855 17.146466530310658 0 0 0
6835 51 1 4.610853567582382 5.00376580071475 17.79276016793807 0 0 0
6836 51 1 4.972470929394299 5.8336010330778425 19.08434632852459 0 0 0
6837 51 1 6.1977519546183695 5.258678877964526 19.810115283628598 0 0 0
6838 51 1 6.385010359587985 5.885740901222369 21.14422603139468 0 0 0
6839 51 1 7.454540960706275 5.189827096341481 21.94959548402905 0 0 0
6840 51 1 7.741387066423009 5.695254233819908 23.320306080504746 0 0 0
8444 64 1 9.379122329295534 24.866930531115194 18.75997107276119 0 0 0
6939 49 1 1.2102916563536636 8.13826437773304 4.886255049365552 0 0 0
6940 49 1 1.4619288342287498 7.443756006668002 6.220813444394105 0 0 0
6941 49 1 2.6740907393151008 7.903315582939192 7.074392908962709 0 0 0
6942 49 1 2.8270268849854068 7.263581871810561 8.465108007449775 0 0 0
6943 49 1 4.0498851029384815 7.912975760478128 9.231887976304192 0 0 0
6944 49 1 4.2395416174584755 7.357795482424884 10.649614378572128 0 0 0
6945 49 1 5.4795385197899344 7.901918931700731 11.34455531398225 0 0 0
6946 49 1 5.6913305818011075 7.24635415866096 12.659550437672095 0 0 0
6947 49 1 6.957644711311749 7.691233579677192 13.402373131164685 0 0 0
6948 49 1 6.973306746026995 7.107475987184529 14.788841250785495 0 0 0