LAMMPS data file via write_data, version 23 Jun 2022, timestep = 11112117

8487 atoms
2 atom types
8471 bonds
3 bond types
8455 angles
3 angle types
8439 dihedrals
3 dihedral types

0 36.89775039 xlo xhi
0 26.67072 ylo yhi
45.355076609847785 191.39652779018866 zlo zhi
0 4.594782043327044 0 xy xz yz

Masses

1 14
2 15

Pair Coeffs # lj/cut/omp

1 0.0914 3.95
2 0.1947 3.75

Bond Coeffs # harmonic/omp

1 449.5 1.53
2 449.5 1.53
3 449.5 1.53

Angle Coeffs # harmonic/omp

1 62.0967 114
2 62.0967 114
3 62.0967 114

Dihedral Coeffs # opls/omp

1 1.411 -0.271 3.145 0
2 1.411 -0.271 3.145 0
3 1.411 -0.271 3.145 0

Atoms # molecular

3822 25 1 15.6785536941306 18.49889188942917 50.640498411212356 0 0 0
1869 49 1 12.864238344705075 17.659427022055812 58.71506424712301 1 0 1
7541 57 1 6.27660787386517 14.449333700736004 55.08024069601752 0 0 0
7982 62 1 0.15452461793793956 22.11426544114657 47.26197966628251 0 0 0
3790 25 1 18.409448045164517 19.13035481976147 55.63132928016705 0 0 0
1903 11 1 10.435902872662759 19.573360986910654 48.57522401318923 0 0 0
980 5 1 4.942572677327644 9.302176765281965 46.856896390059255 0 0 1
729 8 1 8.898444100861708 7.470821029270588 47.0006241511955 0 0 0
2785 29 1 15.96663952510642 4.331649271537855 48.94006035700641 0 0 1
7987 62 1 1.9737806781375782 19.791951460513634 51.962804166830956 0 0 0
7537 57 1 3.2344205915473014 14.259476887818035 52.22570232902217 0 0 0
1853 49 1 2.240984862066573 19.187517704733764 45.394578421499354 1 0 1
7079 55 1 1.5057509700411749 11.911048419114696 48.254113374875764 1 0 0
3542 22 1 16.365486967758475 12.280644964145774 51.227828410792924 0 0 1
7059 61 1 4.1734606437614925 8.84193409642956 58.910031257947445 1 0 1
242 60 1 14.115509337214121 2.150060373662882 53.66575664236621 0 0 0
5762 48 1 5.676815115725118 14.130123744237725 49.52038499711155 0 0 0
3320 20 1 17.18623487905433 10.222589454188343 45.75993763280871 0 0 1
2481 15 1 14.368369018390515 0.437579688899877 47.67080713475658 0 0 1
464 6 1 9.172466833031002 5.070008240814134 54.47516122128227 0 0 0
4386 30 1 17.07338906137111 23.499328594898437 45.8758566204117 1 0 1
471 6 1 13.81572820676017 5.369849667002645 59.85538790319142 0 0 0
3178 48 1 6.849044158109506 14.100812644016578 50.511894187909995 0 0 0
2267 12 1 13.74762324683606 24.28070893042956 52.77331849285987 0 0 0
7997 62 1 8.749936783281443 21.213332552308525 59.478312777213624 0 0 0
7985 62 1 0.6541527323288171 19.474108564450194 49.7372417812274 0 0 0
2781 29 1 13.130732179011467 3.9404525459530104 45.603779622221644 0 0 1
222 8 1 5.408209725849624 0.9141892114662407 47.55533253115263 0 0 0
6417 31 1 4.185187985580546 3.3823129252690847 59.13385329226899 0 0 0
236 60 1 10.793618321574893 1.9452149574675839 48.34504284360087 0 0 0
739 8 1 13.900719006936562 7.058178972006272 54.978925601468035 0 0 0
1901 11 1 8.857646075121153 21.179869261751353 47.424042766602064 0 0 0
3877 10 1 14.080062507123772 17.824336023341786 46.12067794440576 0 0 1
7358 48 1 2.674975206139283 14.640836429402407 46.976743047254544 0 0 0
1655 17 1 14.96309204981012 16.557558913397738 54.52621805289391 0 0 1
4385 30 1 16.043803508297625 24.563021387934686 45.440001759675994 1 0 1
7539 57 1 4.693599187878749 15.477954276272511 53.68768503547822 0 0 0
1018 13 1 8.647505149700555 11.825674383030531 47.698272487463406 0 0 0
2170 3 1 3.774817442378639 23.554311864406934 46.33496291958956 1 0 1
2218 7 1 9.903948075527937 24.542327302722644 48.135421723114206 0 0 1
457 6 1 6.183789802200532 5.236417583315856 48.53582079572733 0 0 0
740 8 1 14.60495317979021 7.539334234299564 56.20804298043168 0 0 0
1643 17 1 7.5104352714776725 15.04094487176159 45.8405741098885 1 0 1
2511 58 1 17.375173854312127 1.8206673639987774 45.99738181938094 0 0 0
7538 57 1 3.8101561895422122 15.469857264784356 52.49280203039023 0 0 0
731 8 1 9.993156950643058 6.213676499049709 48.79313078214434 0 0 0
3762 23 1 18.020563650589306 15.053563490421652 45.62844728813885 0 0 1
5507 48 1 8.11547374759395 12.69113982074346 51.995193396931434 0 0 0
2264 12 1 11.798374675081103 24.04152601967987 49.55618383928568 0 0 0
3880 10 1 15.236082444520033 16.3017575039555 49.48597693503289 0 0 1
7087 55 1 5.655130175469431 10.9078000106047 56.66684612723251 0 0 0
7294 56 1 2.2578551894328136 12.542906498332865 56.837709833730266 1 0 1
6418 31 1 5.300483451888502 4.198551513607115 59.91806895727606 0 0 0
463 6 1 8.321587845701918 4.438562617874776 53.37993326014656 0 0 0
7542 57 1 5.8503440859134805 15.23549932543924 56.30524936258245 0 0 0
3 8 1 8.888809308132874 26.39748853496442 51.86723209618353 0 -1 0
7 8 1 10.926652199380205 0.215279402574874 54.98629254248212 0 0 0
456 6 1 5.008789117784886 4.189427767578904 48.44338266478329 0 0 0
221 8 1 4.201871975132666 0.010218282638064562 47.719094260957434 0 0 0
7085 55 1 4.7471983751652385 10.796896252093406 54.38168731497359 0 0 0
737 8 1 13.707635074183555 5.975696946305716 52.927606124669865 0 0 0
1902 11 1 10.192568936359255 21.018892371965215 48.00371432856385 0 0 0
8280 1 1 2.985132054077071 23.43590192264884 51.1843622781361 0 0 0
1648 17 1 10.989257849749512 14.823276411215826 50.09090750224301 0 0 1
7547 57 1 10.043057303674306 16.006698253407 59.59461262244851 0 0 0
1856 49 1 4.313202864523799 18.44172590262741 48.501464158332105 1 0 1
7515 56 1 0.3567214432006781 13.567080815659086 54.40709439842112 1 0 1
1859 49 1 6.946678789005315 18.053445152427887 49.57458939240522 1 0 1
891 50 1 18.24755458004975 6.3618007658187725 47.94113731871395 -1 0 0
465 6 1 9.441153394903774 3.7936881246793037 55.32120812915198 0 0 0
1867 49 1 11.412526995716433 17.83875965603595 56.876452171040405 1 0 1
2479 15 1 12.287485195156801 26.216702209992853 46.54337031134069 0 -1 1
6633 34 1 1.7246324704361535 6.88757688943649 50.65129641989713 0 0 0
983 6 1 7.408985951719079 8.402297674268562 49.94756862677372 0 0 0
1242 48 1 2.778899391597249 13.887554329424285 45.64083586676901 0 0 0
8289 1 1 8.777100908210322 24.827501363190976 57.86546081854998 0 0 0
734 8 1 12.570192361545082 6.844078971540142 51.169392706455895 0 0 0
3541 22 1 15.56522208032098 13.038049787850644 50.19776858451149 1 0 1
3543 22 1 17.46280542260436 13.218574728684397 51.742622810100606 0 0 1
770 6 1 13.23344945672816 10.162566665718558 58.50394366721943 0 0 0
7090 55 1 8.711335082578147 10.311852869813915 58.84842800002413 0 0 0
4387 30 1 17.74615518033992 23.72989897897117 47.20960954918489 1 0 1
5433 57 1 0.6792033965705788 19.708135000352808 59.92370915578207 1 0 0
248 60 1 17.788401958067073 4.503838692137506 59.189368029150955 0 0 0
6638 34 1 4.931535243117976 5.253026288385127 53.755015095037564 0 0 0
1645 17 1 9.341161859798111 16.287737059433095 47.006258558769034 1 0 1
1660 44 1 17.93441050090753 18.188828891742673 59.73880298667385 0 0 0
8281 1 1 3.867345833353545 24.534624683875073 51.61302583091537 0 0 0
7990 62 1 5.440243664886833 19.682040761150407 52.72021634050839 0 0 0
7765 62 1 3.582553407006068 17.950059069594392 58.15874225018652 0 0 0
6634 34 1 3.030466987657243 6.158112563443471 50.033777346158956 0 0 0
7081 55 1 2.525421980076939 11.218617965332344 50.230298234468044 0 0 0
2987 48 1 5.6691908246691805 12.877382958967727 48.620585110861036 0 0 0
7056 61 1 1.437264949782167 7.979284720481852 56.220374792794836 1 0 1
8285 1 1 5.90140382984215 23.287623752695914 54.60329618242439 0 0 0
218 8 1 2.1685682736537912 2.2294166576379104 45.522702817811336 0 0 0
4077 27 1 18.173424781623822 19.44469316571559 47.83354683633259 1 0 1
7993 62 1 6.233524065311494 18.77968432093397 56.02118882536739 0 0 0
6415 31 1 2.7527314676571124 4.7231181483913405 57.478780601451454 0 0 0
7535 57 1 1.4813342076387468 15.700001523655999 51.0589690177459 0 0 0
1857 49 1 4.46366520008799 17.34057965985415 49.41720549906808 1 0 1
1904 11 1 11.880446466875632 19.13617740070248 48.94310465262019 0 0 0
6384 4 1 5.492842767058544 1.508480247723017 53.873156433641206 1 0 1
1861 49 1 7.568941569399965 17.099322787371726 51.85283012486022 1 0 1
237 60 1 11.44835260768895 2.527946901578219 49.58119005125347 0 0 0
1912 11 1 15.727131418175436 20.746296472348362 56.0803755959698 0 0 0
7058 61 1 3.176708523557501 8.969775746649336 57.76407855709757 1 0 1
594 48 1 8.345834761128708 13.875992220570053 52.83557367779909 0 0 0
6385 4 1 6.319178835415203 1.2689462264406994 55.00017079724894 1 0 1
986 6 1 8.761659310415128 8.054928694642795 52.79493983611404 0 0 0
7984 62 1 0.7055866700262114 19.726822871788556 48.4508899167555 0 0 0
6414 31 1 2.041719796894149 3.5231791872191103 56.94550302127726 0 0 0
8278 1 1 1.5275319427560463 24.673073108877762 49.488240510834345 0 0 0
4119 14 1 16.182269654339198 22.054216178945815 50.76657229002865 0 0 0
979 5 1 3.8595742665178605 8.4715110861859 46.368240330051286 0 0 1
2907 18 1 16.398765806869203 8.787894588140235 49.344126714642016 0 0 0
4123 14 1 17.84762654537757 23.34833379151231 54.55436210512258 0 0 0
2180 3 1 10.206671300380048 23.08986774740126 54.95200791431728 0 0 1
8214 63 1 4.667553082626668 21.06825830341733 58.631601841824406 0 0 0
1647 17 1 11.034186201660788 15.395825752421137 48.70093458205167 0 0 1
2220 12 1 14.458851975442863 24.68329029057197 55.34561681974554 0 0 0
8284 1 1 4.673661446982459 24.169191258035823 54.875157665757754 0 0 0
3539 22 1 13.513421889105093 12.160611300667792 48.756340365626095 1 0 1
728 8 1 9.24883960954189 6.252977697779536 46.091054101478626 0 0 0
2911 18 1 17.83378088408546 9.861538963247302 52.958350046805634 0 0 0
2178 3 1 9.121423704960463 21.587904688738426 53.064161036297506 1 0 1
1650 17 1 12.013537740414478 16.607651098462522 51.35037395217297 0 0 1
1016 13 1 7.254101325567825 11.137089870094314 45.77366313641342 0 0 0
6416 31 1 3.309665000362121 4.55653595109672 58.83181198599527 0 0 0
3787 25 1 16.959861030368934 18.95911125045516 52.762662922275624 0 0 0
6381 4 1 3.3183765247498513 1.537502464889475 52.16900187302696 1 0 1
4113 14 1 12.87088481826577 21.314315710964813 45.56193426117787 0 0 0
8290 1 1 9.248334610026712 25.332121521011654 59.20518565992247 0 0 0
1915 11 1 17.59615653133727 21.820104461889976 58.72116792089641 0 0 0
2910 18 1 17.380975328270292 9.020503045924219 51.70647548708787 0 0 0
8211 63 1 2.0156657124089907 22.27547898554252 56.13885392683608 0 0 0
6637 34 1 3.919404494898076 5.4928858526146165 52.756668861869095 0 0 0
7540 57 1 5.1494768938721664 14.17908755903795 54.20476883164574 0 0 0
1860 49 1 8.097172390755608 17.605036350450607 50.57296019031986 1 0 1
6636 34 1 3.740277095888625 6.993347379646153 52.3806613457675 0 0 0
730 8 1 9.998307780431698 7.484936306987097 47.97034770126079 0 0 0
7543 57 1 6.372145102046927 14.377986382553852 57.45667462764458 0 0 0
987 6 1 8.54284961125687 9.482260071220342 53.03130766162178 0 0 0
462 6 1 9.0739003782166 3.437109665196347 52.43071035900722 0 0 0
3538 22 1 14.093562694121038 13.055198142410696 47.63360732163866 1 0 1
735 8 1 11.693216123447726 6.110398693040786 52.045983488043966 0 0 0
4117 14 1 15.223568857728065 21.180661831486116 48.683368142240134 0 0 0
7764 62 1 2.2909971196838086 17.71639137226683 57.529242586419244 0 0 0
2219 7 1 10.316260250296576 24.338485128666974 49.49090915897348 0 0 1
4991 13 1 16.929508658005048 11.964434286525602 56.237741644641254 0 0 0
1905 11 1 12.39738296726625 19.626794908683337 50.2181788083873 0 0 0
5897 44 1 0.4639117592661523 23.93754007388601 58.84180922748445 0 0 0
743 8 1 16.316461471686424 8.235350980522455 57.59245804925987 0 0 0
2728 48 1 9.340869263314135 12.688351454397715 54.748480100719874 0 0 0
7080 55 1 2.437135206946847 10.911047309704395 48.760237770196575 1 0 0
7545 57 1 8.253599753000042 16.061522374255677 57.68309572662671 0 0 0
2783 29 1 13.901468262546548 4.892680471865182 47.76701023449049 0 0 1
5952 43 1 1.8113303873916293 26.43699080145652 55.63667151475404 1 -1 1
6635 34 1 4.206129304738542 6.937943084528332 50.8264285106533 0 0 0
455 6 1 3.779792402401478 4.615126769452126 47.57136572467874 0 0 0
3321 20 1 17.194130226225557 11.686602532835705 46.1441495091604 0 0 1
812 13 1 16.246137526392925 12.731415604170756 55.06038429781261 0 0 0
3012 13 1 18.061692427667097 12.770139956538856 58.61479619806977 -1 0 0
2782 29 1 12.836869994647325 4.566045076076158 46.93664425285859 0 0 1
1658 44 1 16.404004195596688 17.275475567743214 57.99494665742989 0 0 0
220 8 1 3.1032300338835026 0.15539930853910192 46.7091396572356 0 0 0
7194 48 1 13.49845664234637 13.820517233738014 58.129720894833724 0 0 0
4514 31 1 0.9356819404985611 2.5123767723767796 59.740483569771115 0 0 0
3821 25 1 16.14541391259407 17.414255257375448 49.669950468243385 0 0 0
1868 49 1 12.035860871218686 18.628752169675774 58.00358670166619 1 0 1
1114 13 1 11.571922928147455 11.453997103844207 51.98176198890678 0 0 0
733 8 1 11.964505627273068 6.430427844448277 49.8130377164417 0 0 0
4120 14 1 16.670456184676194 23.438309217990202 51.0874593531966 0 0 0
8282 1 1 3.180847431271988 24.827819418534396 52.91293775919547 0 0 0
988 6 1 8.937715750858029 9.548375082587757 54.446255809867566 0 0 0
5954 43 1 3.624647071223123 0.016657459086691282 57.326155221142095 1 0 1
745 8 1 18.40145890335429 9.286002032957688 58.93374362161062 0 0 0
2906 18 1 15.74638342342299 8.269343148992638 48.01219978061493 0 0 0
6315 13 1 17.40295445713801 12.975356882776458 57.30682845548708 -1 0 0
2217 7 1 8.295995223966711 24.555206643455936 48.17163161158418 0 0 1
7297 56 1 4.513465034447554 12.54567610206778 59.81707202225235 1 0 1
8212 63 1 2.756242930565257 22.284542064452253 57.46593062374346 0 0 0
6 8 1 9.73431267310903 0.3428142486611809 54.08503153949705 0 0 0
2175 3 1 6.861322315664836 22.995510706620735 50.51869859894444 1 0 1
736 8 1 12.311273712283795 6.015660934827406 53.350285011539306 0 0 0
3876 10 1 12.721806543787599 17.199147328573968 46.16018504108759 0 0 1
2648 48 1 6.787832551764024 12.73916281174508 51.340463516640554 0 0 0
2905 18 1 14.295585686201898 8.597466333227493 48.29189899686935 0 0 0
732 8 1 10.564447393403697 6.324921042153399 50.124820610536986 0 0 0
1910 11 1 14.263441069033297 19.95456364551418 54.47427302914534 0 0 0
982 6 1 6.706119823462586 9.270024632244947 48.77528208243917 0 0 0
4116 14 1 14.620535415466785 21.290966613261414 47.24171866512729 0 0 0
2489 15 1 18.515502022642252 2.293147003288208 53.92972298615618 0 0 1
742 8 1 16.843722489931753 8.633692926981837 56.25968564010571 0 0 0
467 6 1 11.460533426541632 4.8454189076165735 56.09431407605915 0 0 0
6386 4 1 5.8322502418135285 2.3003662337487154 56.03427723768683 1 0 1
7516 56 1 1.5688811961634648 12.48120785641944 54.56038802638668 1 0 1
247 60 1 17.033071972849232 3.7786041620233712 58.135466026405695 0 0 0
2908 18 1 15.467742364905424 8.429480159213186 50.481570097534565 0 0 0
2480 15 1 13.515899853710474 0.4364053319676384 46.40008535677318 0 0 1
7613 13 1 12.893222241387797 9.904751096709518 53.24652421564228 0 0 0
7983 62 1 0.7987409788502386 21.252701802832014 48.35527979010507 0 0 0
3540 22 1 14.592736550440268 11.848092871612932 49.78145027274784 1 0 1
1840 50 1 17.946776007878263 6.320358799559132 46.45929577766354 -1 0 0
4388 30 1 17.969634324927117 25.172172903478742 47.07716224864184 1 0 1
1646 17 1 9.67103547371269 15.190909171403167 48.03852343781979 0 0 1
454 6 1 4.118984723091327 5.42645251004582 46.29333808319041 0 0 0
1654 17 1 13.5412325432899 16.405303400125323 55.04939613604809 0 0 1
466 6 1 10.384179901859502 3.8730847384607285 56.492785054627944 0 0 0
6641 34 1 6.721028556135404 7.036619540962368 55.97945215887003 0 0 0
246 60 1 16.533620487506607 4.904953308359452 57.17152483404393 0 0 0
7767 62 1 5.24748707984435 17.262479918262414 59.626738224888825 0 0 0
1 8 1 6.658987179076096 0.1309926248584666 51.00133421459752 0 0 0
469 6 1 12.23906919751898 4.493493567391429 58.3527453121962 0 0 0
2483 15 1 14.931687025057181 26.130510641891593 49.7564914624146 0 -1 1
7086 55 1 5.993740507290455 10.661969297189842 55.16310219760136 0 0 0
8288 1 1 7.197514985660794 24.843841355287253 57.74517467174199 0 0 0
2182 3 1 11.932676370620765 22.001261566992433 56.31725438639024 0 0 1
459 6 1 6.189036720940514 3.8172933608329895 50.30415998416549 0 0 0
7761 62 1 0.8330145976563212 17.76040287280243 54.972968687716026 0 0 0
4075 27 1 17.297478328282892 18.80946131651487 45.56655129075746 1 0 1
6377 4 1 0.7522880865217553 3.030424776078568 49.83810961501611 1 0 1
2486 15 1 15.99422395793004 0.5376411275830149 52.064235559024766 0 0 1
2224 12 1 17.570829829108902 26.096295671749676 58.83257206504016 0 0 0
1866 49 1 10.554290107477469 18.798708179128216 56.1767043314794 1 0 1
7399 13 1 10.347300655886182 10.236505300231727 50.29783256992269 0 0 0
1864 49 1 9.371722160429217 17.017069056537366 54.84664594708895 1 0 1
3841 48 1 10.511736477475571 12.89360092531867 55.75563988064022 0 0 0
7591 48 1 10.987685599714744 14.264944326816742 55.75715256897894 0 0 0
4122 14 1 16.843980672651178 23.468161616295976 53.55331862697256 0 0 0
3322 20 1 17.51858563476425 11.71186667729827 47.563961627177505 0 0 1
7060 61 1 4.991691010300446 7.553643483746866 59.31493056966821 1 0 1
6388 4 1 7.11166457267385 1.1942426476470371 58.24280783987953 1 0 1
2177 3 1 8.558459001403737 21.72155567527958 51.74212376735733 1 0 1
1020 13 1 9.855977822175092 10.384494515020284 48.861066339211916 0 0 0
7517 56 1 2.672154729514382 13.067057154338954 55.49744317059837 1 0 1
6379 4 1 2.4788133454921946 1.339451670729049 49.93386208692014 1 0 1
6387 4 1 6.9392766872526455 2.2396879848248936 57.12882300499954 1 0 1
1995 48 1 11.441582989376146 14.25567956522272 57.22248348933665 0 0 0
2482 15 1 14.264608640530996 25.802783359477118 48.43538182773055 0 -1 1
3537 22 1 12.93865612881717 13.380474998801185 46.644087364832394 1 0 1
767 6 1 11.568019779464747 8.91847790906437 56.979736894445594 0 0 0
1870 49 1 13.723833726420091 18.15802128013011 59.745478104853895 1 0 1
7986 62 1 1.8818708194411675 20.123513676743844 50.51250167288072 0 0 0
2265 12 1 12.32638426986247 23.475461880524904 50.937754335261246 0 0 0
2904 18 1 13.45024374734588 8.877371186421968 47.03313546857895 0 0 0
2181 3 1 10.738003777508368 21.708558351565642 55.41182809498176 0 0 1
1649 17 1 10.621991414973502 15.889382277586966 51.0580262328026 0 0 1
7762 62 1 1.8406887430908232 16.63188723615446 55.015234046273804 0 0 0
7057 61 1 1.8841689409493245 8.15124452085579 57.72833333044839 1 0 1
2786 29 1 14.971592486508182 4.8668073108285235 50.05221958729022 0 0 1
6413 31 1 0.8228746862624333 4.053187939513649 56.184577926642774 0 0 0
2484 15 1 15.894903038195132 0.6726462320594129 49.55235311371489 0 0 1
4121 14 1 17.598017661690704 23.271595424962232 52.289826112222656 0 0 0
7991 62 1 5.326343715774813 20.337690479830723 54.11115241504886 0 0 0
2 8 1 8.068108449808504 26.52455314544761 50.65177717900165 0 -1 0
240 60 1 12.220383810871196 1.6329922257938005 52.287834245753814 0 0 0
3789 25 1 18.593336257943438 18.19407797156008 54.510155212705456 0 0 0
241 60 1 12.66077372597627 2.200018156326554 53.56741747257712 0 0 0
2909 18 1 15.899891960822362 9.09635328673594 51.738467846644554 0 0 0
741 8 1 15.727715299944427 8.1838557617502 55.409332811586495 0 0 0
7295 56 1 3.2363472441840564 13.191599165802003 57.82265564049361 1 0 1
2172 3 1 5.097902456058382 22.973957142510525 48.303172410103116 1 0 1
2171 3 1 3.86925999217455 22.483662949129577 47.36069409444516 1 0 1
1651 17 1 12.93041881142162 15.359308525761103 51.471203830458435 0 0 1
6380 4 1 3.13474198875781 2.2923100253729793 50.901185699316954 1 0 1
8213 63 1 3.65366926008004 21.205322267199787 57.470385397798594 0 0 0
7996 62 1 8.479972000023105 21.085757242561748 58.037800370401 0 0 0
2268 12 1 13.56158820116899 24.971833484700063 54.14577503648912 0 0 0
8275 1 1 0.2648295010616855 25.644650823054526 46.80448047381378 0 0 0
4114 14 1 12.930168022128742 22.671317266754315 46.264199861512296 0 0 0
7361 48 1 4.536238646158381 13.017438467897696 47.57452890305065 0 0 0
2784 29 1 15.069013554625247 3.866726520133466 47.712558169384046 0 0 1
6631 34 1 1.45145923197649 7.909315394781709 48.344061296476724 1 0 0
2787 29 1 15.88570691315621 4.321679472549332 51.114969861155146 0 0 1
233 60 1 8.049425539595589 2.0463572299500816 45.94861294797596 0 0 0
2176 3 1 7.723820826312046 23.006547057567406 51.69708960509323 1 0 1
1898 11 1 6.714427106256365 21.298873816989577 45.914173271567265 0 0 0
262 13 1 18.86533516191879 13.902388110887044 59.29603603918231 -1 0 0
5955 46 1 3.7567541327447453 0.22237891843520255 58.71538445864675 1 0 0
224 8 1 5.864410043020304 26.61183233855675 49.7848385631947 0 -1 0
7995 62 1 7.816672456712681 19.752416580785813 57.71885434347401 0 0 0
1657 44 1 15.958162900439202 16.197641078657504 56.976674723629074 0 0 0
769 6 1 13.022118489994368 8.69763086467839 58.87555488035422 0 0 0
10 8 1 12.114718028786399 0.07794575949862083 58.501938616260404 0 0 0
1515 48 1 9.693634751927343 13.627436117811923 53.49939654810484 0 0 0
7089 55 1 7.7872433872535884 10.00650060739096 57.62731211372167 0 0 0
8283 1 1 3.6218641665553784 23.88552049839662 53.9894748640773 0 0 0
235 60 1 9.406010568188124 2.450017106742274 47.93601933478951 0 0 0
8287 1 1 6.700229981182599 24.625578173666714 56.37980337056086 0 0 0
6382 4 1 3.257819348559298 2.467402445349957 53.38855231796773 1 0 1
1797 13 1 12.775684600268104 11.136767074388 54.01328563815103 0 0 0
452 6 1 1.7078766272634782 5.524323277554406 45.51999598755382 0 0 0
458 6 1 7.100515787204691 4.726679972270152 49.55479983862723 0 0 0
3788 25 1 18.292641020590846 19.112454833566844 53.34102834126938 0 0 0
4846 13 1 15.34267487244086 11.828663269379746 54.24090758359491 0 0 0
11 8 1 13.510405591652743 0.42007388071109963 58.91154799367355 0 0 0
470 6 1 13.268450608245171 4.0254426575545015 59.28024461462432 0 0 0
7994 62 1 7.027594742100563 20.039906141445933 56.445378045176064 0 0 0
2903 18 1 13.681096163212816 7.907419343292188 45.83235001355685 0 0 0
245 60 1 16.449003050353 4.224576605306555 55.80114864402721 0 0 0
460 6 1 6.966701605250222 3.2558076540294003 51.40782047489946 0 0 0
239 60 1 13.164510017504304 1.801213573779179 51.244467743295914 0 0 0
1019 13 1 9.366070596668782 11.749537110871572 49.00490077142123 0 0 0
7055 61 1 1.6719946616002923 9.023897678811592 55.021681126129906 1 0 1
2789 16 1 17.26230740928467 5.219418679382382 52.34761735745211 0 0 0
223 8 1 6.572727206946159 0.5792247719715247 48.560910560938524 0 0 0
8279 1 1 1.7512076473549527 23.880774996072578 50.7156744685659 0 0 0
7544 57 1 7.922185178034587 14.527887063785888 57.65786339111308 0 0 0
2141 53 1 12.276732281035793 23.408266260485952 59.693929528783585 0 0 0
4115 14 1 13.49122619373789 22.455897572296514 47.45280103821372 0 0 0
7084 55 1 4.928899190691536 10.713715015917069 52.8971844496237 0 0 0
244 60 1 15.717033210989657 2.805512812844634 55.74729657552479 0 0 0
3544 22 1 16.732017948645563 14.482675022673003 52.18302460762882 0 0 1
234 60 1 9.45341960545301 2.1025330932261483 46.45819808751161 0 0 0
6639 34 1 4.646395902914187 6.2691885513471 54.8005022346287 0 0 0
461 6 1 8.43360268798382 3.449342952158366 51.14580702788837 0 0 0
6383 4 1 4.136059387567028 1.8158596321345841 54.417353227337536 1 0 1
7763 62 1 2.736362351843197 16.78630533821756 56.286795175427 0 0 0
7053 61 1 0.40798494127343155 9.892119777931883 53.058931144346246 1 0 1
6640 34 1 5.417264042707638 6.3900768618215835 56.18708018283313 0 0 0
238 60 1 12.407409487180837 1.475471912696717 50.03981867403296 0 0 0
7989 62 1 4.092600890561256 19.14797639170576 52.2603767263121 0 0 0
2139 53 1 11.567081265985157 22.188833021477087 57.74286695801735 0 0 0
7879 13 1 11.051123702068894 11.659518985123235 50.56551222853137 0 0 0
1858 49 1 5.7036743415326026 17.38020632942086 50.22134422093547 1 0 1
8210 63 1 1.3731991929682739 21.021561660807716 55.62158351504938 0 0 0
744 8 1 17.164962888136685 8.254721697860425 58.8593076355723 0 0 0
1644 17 1 7.9433227888171025 16.31687139225033 46.46626373095824 1 0 1
7054 61 1 0.6432916289096513 8.69522346905954 53.95248866363234 1 0 1
7766 62 1 4.087649269231283 16.72291908727041 59.00547138979405 0 0 0
1911 11 1 14.431001215406528 20.260983823706948 55.982163983409464 0 0 0
2221 12 1 15.085175194300716 25.908974109797086 56.036150177367986 0 0 0
7088 55 1 6.988188124330395 11.244988681254812 57.239805427159816 0 0 0
1871 49 1 13.8280219115655 19.696678094972516 59.694057175518964 1 0 1
3823 25 1 17.01331360319101 18.924933980826818 51.249134511383254 0 0 0
249 60 1 18.7799731461016 3.5484902114290495 59.85656968231424 0 0 0
5953 43 1 2.4558354637367232 25.89102095150765 56.98364999439177 1 -1 1
2487 15 1 17.24415110556335 0.6460792586920048 53.0717474819537 0 0 1
1855 49 1 3.4824203306857364 18.110759479154456 47.36667342706638 1 0 1
1899 11 1 6.889455647087331 19.796002714750948 46.46200264811163 0 0 0
1908 11 1 13.629221693275289 20.68366501403386 52.515666062758754 0 0 0
2174 3 1 6.621064390351185 21.734864323354014 49.90341986696415 1 0 1
2490 14 1 18.31564524543495 1.2718713236416832 54.92334567141995 0 0 0
981 5 1 5.753468160132377 8.41468667463266 47.89709901716482 0 0 1
468 6 1 12.700154033569355 4.830011753923022 56.933295414169265 0 0 0
1907 11 1 12.283893291706432 20.31267549759748 52.68701816249865 0 0 0
5 8 1 8.708068635771903 25.913832643305472 54.18750274553295 0 -1 0
1914 11 1 16.930408936650434 22.39866366340225 57.5881289340413 0 0 0
2223 12 1 16.67005309000983 0.0028744315324044003 57.63865570504764 0 1 0
985 6 1 7.364455208602647 7.5362193828320025 52.25035899965005 0 0 0
768 6 1 11.913661862042883 8.119698739365534 58.109873327409744 0 0 0
7083 55 1 3.680173509307178 11.040007849715554 52.16269217567978 0 0 0
243 60 1 14.380873959616679 2.6885123703739318 55.09753190135599 0 0 0
7082 55 1 3.91159953651732 10.952418135752112 50.64652044647831 0 0 0
2179 3 1 9.991133749304991 22.810405147129558 53.507729040508444 0 0 1
8 8 1 10.688047566425302 0.39540915381534414 56.45865878648539 0 0 0
7988 62 1 3.194236769648096 20.355200913187968 52.26875112300405 0 0 0
7296 56 1 3.270300359068049 12.371999831647315 59.039187081573814 1 0 1
2215 7 1 8.327798783638924 24.92089457154815 45.60476688119531 0 0 1
3536 22 1 12.489036866364804 12.042956934426945 46.0932611551616 1 0 1
4118 14 1 15.595838388443154 22.40680516260693 49.447011682972544 0 0 0
7536 57 1 2.5542785998105932 14.556965031498471 50.88711483108084 0 0 0
3723 13 1 14.042257423388296 11.453497818157883 54.85207645885461 0 0 0
3878 10 1 15.014882174109228 17.47742371149342 47.22346074289593 0 0 1
1865 49 1 10.046414267303096 18.343754555081755 54.89396605417846 1 0 1
2485 15 1 16.813392050045632 0.7577716434250523 50.82369672989325 0 0 1
7992 62 1 5.012125494349718 19.298125661650197 55.101628087745375 0 0 0
219 8 1 3.357841223886225 1.5950155186580115 46.16128164381654 0 0 0
765 6 1 10.262606121339932 8.813624509116991 54.747920450712215 0 0 0
6217 48 1 13.190420215624778 14.100686036315512 59.598947778892196 0 0 0
9 8 1 12.086921247416536 0.3724098628600962 56.97465864296595 0 0 0
1652 17 1 13.560044929821007 15.705271775903668 52.74694031822181 0 0 1
8215 63 1 4.855179657705312 22.476326792382334 59.15746490734447 0 0 0
2266 12 1 12.524761535668471 24.464853477802414 51.98778725086744 0 0 0
6645 34 1 8.424455815398964 6.8925202421718454 59.29507324283223 0 0 0
2173 3 1 5.41507844455063 21.71076516139907 49.087758168982006 1 0 1
7546 57 1 8.693343101351305 16.522161807521652 59.05724192241026 0 0 0
1863 49 1 8.185156897596517 16.970117680589446 54.08124990161298 1 0 1
6390 4 1 9.237092618911916 2.0153222826892034 59.19418972210634 1 0 1
5486 13 1 12.404256430659112 10.13682607035276 51.963959915477666 0 0 0
2512 58 1 18.174460783258155 2.797841515947123 46.77817396507732 0 0 0
766 6 1 10.463681670562751 8.096430088575525 56.15118549550321 0 0 0
984 6 1 6.895573490888546 8.608616399330192 51.293694147972154 0 0 0
2216 7 1 7.648916337234087 24.221089192323387 46.79339621588167 0 0 1
1906 11 1 11.575835347301938 20.212388505997335 51.22996593781347 0 0 0
2790 16 1 18.579806421423182 5.731960795998742 52.74900279273239 0 0 0
1656 44 1 15.625242121015622 17.10636312397618 55.81035083282555 0 0 0
2222 12 1 16.146728125363328 25.454880299105557 56.89628934269666 0 0 0
4375 48 1 3.94689211954109 14.459746079822603 47.700636771184996 0 0 0
4 8 1 7.9548418731163855 25.989724621206175 53.00067723375123 0 -1 0
6644 34 1 8.194080065239213 5.383562420885733 59.16053840012035 0 0 0
738 8 1 14.681256423350353 6.477982034596076 53.92987797348624 0 0 0
1909 11 1 14.201547098434267 21.219533601823592 53.75522534392249 0 0 0
1900 11 1 8.405144761786584 19.740213844156845 46.87047066078217 0 0 0
1653 17 1 12.745591531525738 16.534696781803348 53.742107734943964 0 0 1
3879 10 1 14.290607681325977 16.808368339214855 48.333584867784666 0 0 1
2788 16 1 17.15267970591592 4.916250108992542 50.94700918024926 0 0 0
6411 31 1 0.5715722867047724 5.26034234387182 53.96352136828068 1 0 0
1952 48 1 12.539951032955344 13.282497680128369 57.050329319497166 0 0 0
1659 44 1 17.295985933494986 17.000513593366698 59.185918544997364 0 0 0
1862 49 1 8.412967234283272 17.773245391527805 52.8047552711977 1 0 1
6632 34 1 1.5719393335585217 8.04687739079505 49.85881528299589 1 0 0
6642 34 1 7.530188398645979 6.8034762082827145 57.19140746564163 0 0 0
6389 4 1 7.8564664384467084 1.6160594803977377 59.32960618151727 1 0 1
3545 22 1 17.683009453652126 15.309413719490854 52.96961561007516 0 0 1
2140 53 1 12.73343758956871 22.573965144277068 58.58174194749945 0 0 0
8286 1 1 6.682846861541179 23.198041362476093 55.8678170249183 0 0 0
1913 11 1 15.728166562840556 21.59378598138586 57.318547340610465 0 0 0
6378 4 1 1.598452316714228 2.1380545072769057 49.030437649309626 1 0 1
1017 13 1 8.54867339967966 10.829398126012475 46.59009669614703 0 0 0
2488 15 1 18.24237057365169 1.6569404556211085 52.61308923853606 0 0 1
6412 31 1 1.4844998296408756 4.8340305202268565 55.01562841837497 1 0 0
6643 34 1 7.50899610299303 5.425929791563819 57.84754561869304 0 0 0
3763 23 1 17.65526792936001 15.2401750380478 47.03485869288752 0 0 1