LAMMPS data file via write_data, version 23 Jun 2022, timestep = 1000

8487 atoms
2 atom types
8471 bonds
3 bond types
8455 angles
3 angle types
8439 dihedrals
3 dihedral types

0 36.89775039 xlo xhi
0 26.67072 ylo yhi
0 236.7516044 zlo zhi
0 7.448720975 0 xy xz yz

Masses

1 14
2 15

Pair Coeffs # lj/cut/omp

1 0.0914 3.95
2 0.1947 3.75

Bond Coeffs # harmonic/omp

1 449.5 1.53
2 449.5 1.53
3 449.5 1.53

Angle Coeffs # harmonic/omp

1 62.0967 114
2 62.0967 114
3 62.0967 114

Dihedral Coeffs # opls/omp

1 1.411 -0.271 3.145 0
2 1.411 -0.271 3.145 0
3 1.411 -0.271 3.145 0

Atoms # molecular

1 58 1 7.751510594290984 0.6267065027833069 9.007060369880111 0 0 0
2 58 1 9.20789792941034 0.6217088097354291 9.524670964988383 0 0 0
3 58 1 9.171149575980772 0.625955388840164 11.095023397021578 0 0 0
4 58 1 10.499426132073483 0.30322007894720593 11.741543387211244 0 0 0
5 58 1 10.46884997046742 0.39517357010457965 13.294717002031035 0 0 0
6 58 1 11.895434111914874 0.3026878089308889 13.8757414871712 0 0 0
7 58 1 11.922202508180398 0.7752058238535272 15.293424159142353 0 0 0
8 58 1 13.320719344967682 0.8092711879437825 15.87163291418726 0 0 0
9 58 1 13.381191750102028 0.593860991201277 17.37850855773698 0 0 0
10 58 1 14.727811122896918 0.7107405774262934 18.087600162514455 0 0 0
11 58 1 14.710423013341776 0.614225366371009 19.612048589630664 0 0 0
12 58 1 16.036944213021354 0.7782861863215776 20.339153685710055 0 0 0
13 58 1 15.933672968532319 0.7361743269375242 21.86732741446125 0 0 0
14 58 1 17.20994255855553 1.0640893066919805 22.62493669238822 0 0 0
2550 23 1 16.428000313565196 3.432848357874948 0.15273396849826246 0 0 0
8062 63 1 5.351485059973433 23.432400353955057 19.59521777285557 0 0 0
218 58 1 3.582701535212015 0.8089881028392669 1.0386384848337566 0 0 0
219 58 1 3.5158957150450836 0.8018439216710611 2.5543247620580556 0 0 0
220 58 1 4.888892970509702 0.8530968336176463 3.2374400332932476 0 0 0
221 58 1 4.982848182779119 0.5635438588206199 4.745868018112625 0 0 0
222 58 1 6.364379578260915 0.8840116153014831 5.2756692506944205 0 0 0
223 58 1 6.282161986379159 0.8805931127482934 6.805755864603881 0 0 0
224 58 1 7.65364440709618 0.9156868462396788 7.497568752499129 0 0 0
225 36 1 10.698544814741506 2.70203931959302 6.146026366595602 0 0 0
226 36 1 11.975395857043777 3.199550071808354 6.858157674151596 0 0 0
227 36 1 12.098991917733235 2.6895107960536726 8.263274172016613 0 0 0
228 36 1 13.209852253786629 3.2836277947678636 9.168240345616312 0 0 0
229 36 1 13.422647662114022 2.7395314047318804 10.638374506938469 0 0 0
230 36 1 14.457061995553849 3.4824396595555065 11.460750200515625 0 0 0
231 36 1 14.88551194383127 2.6945321044655146 12.675766695330156 0 0 0
232 36 1 15.837783786066193 3.4417233503988975 13.593745388786706 0 0 0
233 36 1 16.324064726123723 2.6752889225280745 14.85178375650117 0 0 0
234 36 1 17.401185643929168 3.4015079783861344 15.695821230015836 0 0 0
235 36 1 17.890805511978964 2.596987844848933 16.947648320259148 0 0 0
8061 63 1 5.135336482678926 23.09732161138707 18.147877445383994 0 0 0
4174 33 1 16.98340729151334 20.706142904683603 0.8046487066681542 0 0 0
444 36 1 7.867836690722645 3.5478370795822385 0.5069665470495904 0 0 0
445 36 1 8.070583055804002 2.931440556928409 1.8658443114928516 0 0 0
446 36 1 9.20225165014971 3.458054986210983 2.6652519608495795 0 0 0
447 36 1 9.538538334959338 2.6067810257159625 3.88392017947033 0 0 0
448 36 1 10.470435337678062 3.3714954100694907 4.783638673787961 0 0 0
449 37 1 7.50189048588228 5.079294651845752 8.378060888289642 0 0 0
450 37 1 8.877540622342643 4.936223469626115 8.947762353569122 0 0 0
451 37 1 8.827412875752355 5.106344116123668 10.500312812585028 0 0 0
452 37 1 10.195635308973497 5.169655844291724 11.1713476637229 0 0 0
453 37 1 10.35508442314618 5.091449165184426 12.646598585355344 0 0 0
454 37 1 11.778169855886603 5.070007437884323 13.259722597473562 0 0 0
455 37 1 11.73212287419754 4.954790930271731 14.8096465248014 0 0 0
456 37 1 13.027712743977892 5.16072819085869 15.45007977257114 0 0 0
457 37 1 12.963948089833394 5.095086377839053 17.031794375133337 0 0 0
458 37 1 14.368430559394806 5.190921030702221 17.674168947290752 0 0 0
459 37 1 14.259830603074928 5.091535822231125 19.144546226753604 0 0 0
460 37 1 15.603221984687474 5.123613254740312 19.93945157972043 0 0 0
461 37 1 15.509569125623782 5.055192249502157 21.438723359101083 0 0 0
462 37 1 16.881685400615524 4.990567003297273 22.102200817189047 0 0 0
463 37 1 16.878983024215927 5.177052589027659 23.59608648016919 0 0 0
8278 55 1 2.8220482799873756 24.932081681218996 8.642226142500148 0 0 0
666 37 1 3.1921138260956083 4.614136005871699 0.3936295132695957 0 0 0
667 37 1 3.4107895080918262 5.143982528745275 1.7837448513849132 0 0 0
668 37 1 4.590454538824802 4.525252301606463 2.570663843245319 0 0 0
669 37 1 4.6965271668440565 5.090815040292409 4.0031436545280705 0 0 0
670 37 1 5.974816364621088 4.748787678122828 4.827641315362139 0 0 0
671 37 1 6.083365776335908 5.305268952258363 6.241554805444579 0 0 0
672 37 1 7.444637185920324 4.9436349840516165 6.835931942514889 0 0 0
710 5 1 10.701253860307618 7.1610382246449165 5.930838857112641 0 0 0
711 5 1 12.000543513455641 7.587497537778212 6.614990213429709 0 0 0
712 5 1 12.10388412099384 7.119790482055052 8.0767106943327 0 0 0
713 5 1 13.185225543177335 7.756869493259818 8.942290257522156 0 0 0
714 5 1 13.246159666499684 7.150236072098252 10.357197582504034 0 0 0
715 5 1 14.357759562864663 7.8737981489992155 11.12435247972086 0 0 0
716 5 1 14.789178261826025 7.246210571321286 12.467300797837282 0 0 0
717 5 1 15.820240921897247 7.974434980724496 13.299976742773477 0 0 0
718 5 1 16.32203315152916 7.30629332874965 14.546937567438324 0 0 0
719 5 1 17.40427105369757 7.980690481980445 15.377253131339115 0 0 0
720 5 1 17.7813800891341 7.299028647869386 16.685933926239063 0 0 0
7558 10 1 0.23435158422418842 16.185053608545577 3.955522114061324 1 0 0
8065 63 1 7.746562529477331 22.865765711454955 22.713737788520326 0 0 0
756 5 1 7.362158213266277 7.945692915924674 0.4675642770319321 0 0 0
757 5 1 7.782643390717467 7.269060163110614 1.7468492145147427 0 0 0
758 5 1 8.926641604206813 7.849383146854604 2.504407672971361 0 0 0
759 5 1 9.344641448954478 7.116252693714286 3.758432051939684 0 0 0
760 5 1 10.397670121709679 7.855894899770618 4.599726713791229 0 0 0
761 6 1 7.91563949135261 9.898149374023365 7.469485212222072 0 0 0
762 6 1 8.457919085662608 9.019227323469913 8.60269337475429 0 0 0
763 6 1 9.111281554795086 9.75029214544014 9.703852268567859 0 0 0
764 6 1 9.649543170900206 8.897012933665161 10.882218290622639 0 0 0
765 6 1 10.211433793801685 9.844070895085252 11.902700901033983 0 0 0
766 6 1 11.020303005170367 9.134821072495114 13.008245416527853 0 0 0
767 6 1 11.51565191705239 10.053105320099244 14.163375427469001 0 0 0
768 6 1 12.372306427564778 9.294422631042105 15.20110349146451 0 0 0
769 6 1 12.931873892369186 10.096087289936538 16.370212649247428 0 0 0
770 6 1 13.85884009880756 9.201951469204252 17.191151522556 0 0 0
771 6 1 14.4653144545476 9.934607104235171 18.40703472251656 0 0 0
772 6 1 15.447101941855735 9.127024049696228 19.238101183842176 0 0 0
773 6 1 15.786852585042665 9.841095601458209 20.542726297297502 0 0 0
774 6 1 16.721409742040297 9.07889994498348 21.46473926153736 0 0 0
775 6 1 17.07608789454578 9.6754919570929 22.871252852426192 0 0 0
8288 55 1 9.569377289900842 24.94051782491276 19.46787479117498 0 0 0
791 6 1 2.4485922188416143 9.153031586684092 0.34811040169896973 0 0 0
792 6 1 3.3291965287588567 9.93123647004722 1.2820536488582088 0 0 0
793 6 1 3.8679217528993157 9.206099541926985 2.5323381194621666 0 0 0
794 6 1 5.144547919367032 9.763478031244992 3.171760086142277 0 0 0
795 6 1 5.507673157672974 9.116616512544766 4.472064826485698 0 0 0
796 6 1 6.46611889517961 9.928882557057923 5.3925534443563246 0 0 0
797 6 1 6.9660306318747045 9.08150209715249 6.534319381885453 0 0 0
835 9 1 11.238808320660539 11.352624876794627 6.40765571155409 0 0 0
836 9 1 12.084561585190615 12.105249710681282 7.4809615355267765 0 0 0
837 9 1 12.490445886742258 11.391834973439513 8.771360124558493 0 0 0
838 9 1 13.464762316530916 12.198675061607794 9.673010230870496 0 0 0
839 9 1 13.876715426321425 11.462856321885193 10.959584566565738 0 0 0
840 9 1 15.014358540129587 12.191111553395864 11.78291322387231 0 0 0
841 9 1 15.207335054813889 11.594790912503882 13.18693778172852 0 0 0
842 9 1 16.327938637693105 12.268742067187766 13.99582898570096 0 0 0
843 9 1 16.493555596863356 11.826932599192924 15.428014365098699 0 0 0
844 9 1 17.836685907994905 12.106799078960133 16.133046320110207 0 0 0
845 9 1 18.00513489650969 11.64805121826606 17.57854542660689 0 0 0
8060 63 1 3.7604163901811827 23.461771919792785 17.51474031569264 0 0 0
8059 63 1 3.6751037274902085 23.325611968210755 16.006609170319386 0 0 0
1054 9 1 7.634988941716749 12.482926503977069 1.0094603363017234 0 0 0
1055 9 1 8.397694715352854 11.68970695582688 2.108848165806803 0 0 0
1056 9 1 9.087797763337912 12.509434289341268 3.1592529236757185 0 0 0
1057 9 1 9.731422588720712 11.61722478618936 4.205540969762172 0 0 0
1058 9 1 10.655341157643207 12.26248350357837 5.269120636374194 0 0 0
1059 14 1 7.3460851300778645 14.350549099238672 8.193759123116935 0 0 0
1060 14 1 8.647182396904633 14.137104636732266 8.891796495581845 0 0 0
1061 14 1 8.665273434560378 14.563724793930191 10.318706806126837 0 0 0
1062 14 1 9.828374932160234 13.850366530589383 11.035293656730579 0 0 0
1063 14 1 10.024923455241069 14.32484896964922 12.4612510826464 0 0 0
1064 14 1 11.254198661578407 13.692705647984445 13.114154367785222 0 0 0
1065 14 1 11.567821589877232 14.288442108899545 14.500259387092568 0 0 0
1066 14 1 12.711667353785531 13.61398410941057 15.249409402693459 0 0 0
1067 14 1 12.708136314173672 14.104310319503996 16.71309780350981 0 0 0
1068 14 1 13.912784372775644 13.640059639524297 17.4938704294103 0 0 0
1069 14 1 14.094103139348125 14.165903160845911 18.917910740100403 0 0 0
1070 14 1 15.219914934426875 13.503468303012935 19.6487113619308 0 0 0
1071 14 1 15.429664014024944 14.107800985650364 21.030018794851916 0 0 0
1072 14 1 16.498116373379826 13.363688339943671 21.865627379423856 0 0 0
6724 9 1 0.2498816885166596 6.982760296208406 3.994119064362385 1 0 0
8277 55 1 2.614608832543251 25.56303406386008 7.24080647626239 0 0 0
1276 14 1 3.03331829106313 13.956144407378648 0.17464658171615405 0 0 0
1277 14 1 3.1966394394165656 14.445120536757438 1.606820451619341 0 0 0
1278 14 1 4.348652195143807 13.87401000084851 2.368587626640953 0 0 0
1279 14 1 4.476041493119432 14.378120843872235 3.7997016351869406 0 0 0
1280 14 1 5.718986585992814 13.935512969073523 4.618060990486448 0 0 0
1281 14 1 5.845705342717014 14.218309466304081 6.114376926973344 0 0 0
1282 14 1 7.221965820178054 13.994833538108866 6.715289222521759 0 0 0
1283 12 1 10.310383379356855 16.385197893733867 6.2728751173002175 0 0 0
1284 12 1 11.68217918680815 16.662242815210945 6.988046176873253 0 0 0
1285 12 1 11.827689542066446 16.204858610669483 8.432299393294382 0 0 0
1286 12 1 13.261490976120527 16.427115196383316 9.012480423466377 0 0 0
1287 12 1 13.290373217887108 16.33950156237681 10.561336333590718 0 0 0
1288 12 1 14.666470953061376 16.246940100516973 11.17637863941326 0 0 0
1289 12 1 14.837806101178506 16.24301221765936 12.758297496999019 0 0 0
1290 12 1 16.273499591176535 16.139249005819103 13.333386768786383 0 0 0
1291 12 1 16.280702199919514 16.180010890574643 14.840606561640897 0 0 0
1292 12 1 17.680595631154567 16.263121969570083 15.56755532521359 0 0 0
1293 12 1 17.59176500437901 16.242298910966497 17.085349936187644 0 0 0
3668 27 1 12.347853896092722 13.839321806980692 0.4691817215254921 0 0 0
3445 11 1 15.736124954011414 11.916762070325138 0.05258417672570431 0 0 1
1502 12 1 7.778303644992359 16.517748990920207 0.12449954450529006 0 0 0
1503 12 1 7.803713552682363 16.39534335856169 1.660000932526745 0 0 0
1504 12 1 9.148661522830032 16.580636778836528 2.3801653099490396 0 0 0
1505 12 1 9.150792378184207 16.292377824454267 3.9233845570581103 0 0 0
1506 12 1 10.407464449422182 16.66270681283542 4.742733045598396 0 0 0
1507 14 1 7.658417125930148 19.20153128414812 8.666028360126381 0 0 0
1508 14 1 8.50846665650554 18.400645032009187 9.614442978116728 0 0 0
1509 14 1 9.331948639912701 19.165466727888088 10.671903166295737 0 0 0
1510 14 1 10.106006410667439 18.272971639268977 11.639437830482644 0 0 0
1511 14 1 10.713994790302541 19.176897795352353 12.715533326430153 0 0 0
1512 14 1 11.502303111561346 18.259711160195973 13.606758103796656 0 0 0
1513 14 1 12.1528501104102 18.849776941600698 14.886095670186359 0 0 0
1514 14 1 12.591046442527862 17.98863277038373 16.02032103673841 0 0 0
1515 14 1 13.005170661928345 18.864104312480805 17.179002387994196 0 0 0
1516 14 1 13.755187825412822 18.11257933745232 18.277195123596716 0 0 0
1517 14 1 14.285694612888603 18.86573770932693 19.44039238785325 0 0 0
1518 14 1 15.316154705022319 18.045855604286604 20.274163566185532 0 0 0
1519 14 1 15.81416181211155 18.693384334554622 21.55063780164501 0 0 0
1520 14 1 16.709290983826286 17.830014819023777 22.439299863061137 0 0 0
6742 9 1 12.803225065566526 6.7673423484128685 23.584447848323244 0 0 0
8058 63 1 2.2693396272817177 23.296544495341227 15.46914857202761 0 0 0
1724 14 1 2.8905680525423434 18.35952745909456 1.102905295625425 0 0 0
1725 14 1 3.6518946244387003 19.240054426131252 2.117555737402287 0 0 0
1726 14 1 4.5535243616337455 18.509428216743217 3.103324072347357 0 0 0
1727 14 1 5.012310843232168 19.410855903190296 4.188262562542989 0 0 0
1728 14 1 5.744746704644081 18.60023948736993 5.2187725419040305 0 0 0
1729 14 1 6.3253630312478 19.36849720069078 6.403252548899923 0 0 0
1730 14 1 7.03102632961542 18.43944008657271 7.454402581035532 0 0 0
1768 16 1 10.929934837764566 20.601280467299567 5.596255062992125 0 0 0
1769 16 1 11.517941221659733 21.46691813346507 6.671418525821763 0 0 0
1770 16 1 12.13920172272949 20.54890995910952 7.731764328619024 0 0 0
1771 16 1 13.11953260677812 21.160422518623477 8.686262663885762 0 0 0
1772 16 1 13.501513888988434 20.274790011972744 9.905112176345384 0 0 0
1773 16 1 14.626689306368945 20.876473136105005 10.739747445041209 0 0 0
1774 16 1 14.928650416881391 20.33734546213625 12.144684427119016 0 0 0
1775 16 1 16.08359223047095 20.919810217285722 12.953923548951424 0 0 0
1776 16 1 16.440915896396483 20.237760751200312 14.26064005926068 0 0 0
1777 16 1 17.520979441860067 20.858497275487412 15.182228447220291 0 0 0
1778 16 1 17.416309503604165 20.3523517548333 16.574941695373965 0 0 0
8064 63 1 6.652478667879465 23.348140215974546 21.761418077490546 0 0 0
8276 55 1 1.581564747159855 24.910561609084137 6.325264183120883 0 0 0
1800 16 1 7.589076921694802 21.585775192464467 0.14269540142018716 0 0 0
1801 16 1 8.214395137750993 20.738400809461606 1.2458958195639078 0 0 0
1802 16 1 8.743869295791288 21.50494894711053 2.4283071394115376 0 0 0
1803 16 1 9.49944064132725 20.669847381348205 3.4240978408501417 0 0 0
1804 16 1 10.266327779793292 21.430949427803927 4.514035297994328 0 0 0
1805 17 1 7.53634576560552 23.14460273252314 8.391111737954262 0 0 0
1806 17 1 8.989129068741468 23.054996382592066 9.040701831245073 0 0 0
1807 17 1 9.060641413483564 22.95381099263213 10.539630509971301 0 0 0
1808 17 1 10.462759041860998 23.160698384928214 11.109215658676208 0 0 0
1809 17 1 10.447234687221394 22.934908061334717 12.662608770982988 0 0 0
1810 17 1 11.780288857474181 23.273544868816007 13.329670539500306 0 0 0
1811 17 1 11.855267728103273 23.03808436050963 14.855297457158903 0 0 0
1812 17 1 13.19361917512099 23.137869816527285 15.591800608886857 0 0 0
1813 17 1 13.105271487012883 22.754332082243344 17.07916171656135 0 0 0
1814 17 1 14.407165414781838 22.85724246610802 17.82922499603419 0 0 0
1815 17 1 14.276733414827394 22.740315202489352 19.37208057845759 0 0 0
1816 17 1 15.594738281021892 23.23848720183075 19.96704554258339 0 0 0
1817 17 1 15.60502891696588 22.973230464867285 21.485442460703045 0 0 0
1818 17 1 17.04195629242701 23.36155669462603 21.985150962242475 0 0 0
1819 17 1 17.175625666558318 22.976224635747542 23.427590779828304 0 0 0
8287 55 1 9.531898659980666 25.18272166151718 17.987291494380624 0 0 0
1835 17 1 3.2655782792325048 23.204939663821087 0.5260516124993575 0 0 0
1836 17 1 3.353317303314087 23.39212788008624 2.0497848392468763 0 0 0
1837 17 1 4.745085731198386 23.249361683285816 2.6174150052575396 0 0 0
1838 17 1 4.7232294882642085 23.27724460568056 4.1267754317431 0 0 0
1839 17 1 6.1197802546400855 23.122905776516696 4.7451697820783805 0 0 0
1840 17 1 6.1929240187094345 23.459903551310205 6.260571726643398 0 0 0
1841 17 1 7.558135187512849 23.088238412584207 6.860073357712999 0 0 0
1879 19 1 10.703491748163055 25.383959816099086 6.0550605215885795 0 0 0
1880 19 1 12.000425635738246 25.77688578377246 6.721269248482764 0 0 0
1881 19 1 12.067410960082364 25.546384497720286 8.245743004909638 0 0 0
1882 19 1 13.42076047721591 25.60041082138909 8.888679328166752 0 0 0
1883 19 1 13.567027628988583 25.1979897910725 10.381201213427586 0 0 0
1884 19 1 15.011783788669153 25.098975502691395 10.850826944232015 0 0 0
1885 19 1 15.084546519706464 25.001608197523467 12.34137449172318 0 0 0
1886 19 1 16.346198999948303 25.604569725990633 12.976612581806677 0 0 0
1887 19 1 16.491453796302697 25.029459949742854 14.361455039160957 0 0 0
1888 19 1 17.570356431330424 25.585357828833338 15.28918685730075 0 0 0
1889 19 1 17.775600738423506 25.04340735985275 16.684599277567976 0 0 0
1890 19 1 18.931742891291528 25.612877356420125 17.43751589086492 0 0 0
8279 55 1 3.955799062319306 25.60237239828016 9.449360922044258 0 0 0
2098 19 1 7.520311591775339 25.87399636245805 0.4627119824721137 0 0 0
2099 19 1 7.735038892714367 25.369552117791798 1.8567584750736024 0 0 0
2100 19 1 9.05453053788647 25.89193757180251 2.500512766184771 0 0 0
2101 19 1 9.307741143083422 25.368756344566737 3.908845238820346 0 0 0
2102 19 1 10.637539559676604 25.714137731911336 4.56794692675615 0 0 0
2103 34 1 14.30310323417562 1.393236745218878 3.9358817480810626 0 0 0
2104 34 1 15.113672029324572 0.5900148931645073 4.953270839991703 0 0 0
2105 34 1 15.504983265085933 1.2888788340757986 6.201624673663036 0 0 0
2106 34 1 16.548672707124872 0.5385738984548198 7.053442950360914 0 0 0
2107 34 1 17.113660801093115 1.3435100535677176 8.191767147065258 0 0 0
2108 34 1 18.054324263667418 0.505232342084783 8.989929195276106 0 0 0
1073 14 1 16.6857870446349 13.828212556550016 23.289333139073324 0 0 0
2324 34 1 12.369170389751813 0.3626371459040049 0.6858567713669798 0 0 0
2325 34 1 12.842915408441735 1.169307185793359 1.9224271586793231 0 0 0
2326 34 1 13.86501071818225 0.4609706283938149 2.7723422754020994 0 0 0
2327 23 1 16.802416040521376 2.743705409312042 1.4478846015104399 0 0 0
2328 23 1 18.09792128119339 3.3143830951223774 2.0597684429463534 0 0 0
2329 23 1 18.43620852515397 2.716132324916233 3.46337160235998 0 0 0
4211 35 1 15.631628572616966 20.360647424952532 0.24368518753457422 0 0 1
2551 25 1 14.102339029322051 5.575953720390254 4.325652174334683 0 0 0
2552 25 1 15.437461940293758 5.139544472142092 4.969300319635899 0 0 0
2553 25 1 15.761268426030142 5.621403190073151 6.3708946334738235 0 0 0
2554 25 1 16.929577687561885 5.002755385905876 7.1539151369300855 0 0 0
2555 25 1 16.978200240075775 5.428502345478663 8.594198739865568 0 0 0
2556 25 1 18.27085252151897 5.102611906253972 9.355013279981732 0 0 0
2557 25 1 18.149790780215312 5.500165032378101 10.829866876364184 0 0 0
2772 25 1 12.65624593145332 5.4466160016180005 0.7163164902466116 0 0 0
2773 25 1 12.66839471613606 5.709604317638569 2.2098939311258117 0 0 0
2774 25 1 14.049658353379161 5.43557147690721 2.815556077562197 0 0 0
2775 29 1 16.9310287271154 7.697122445512414 1.9093063496711287 0 0 0
2776 29 1 18.25921567916234 8.09657048432727 2.617506990506572 0 0 0
2777 29 1 18.39037717267102 7.720168159257972 4.102403818487447 0 0 0
2998 29 1 16.859925700362783 8.001525427318311 0.4199354373710859 0 0 0
2999 24 1 13.787705214210671 9.91356489621933 3.961537036599862 0 0 0
3000 24 1 15.100511873235908 9.492598710385623 4.676347581499832 0 0 0
3001 24 1 15.195679830899316 9.894140823591723 6.154273796778416 0 0 0
3002 24 1 16.39530874475749 9.382675378916543 7.000922353938607 0 0 0
3003 24 1 16.375809933392432 9.734801483179957 8.42704914388867 0 0 0
3004 24 1 17.64147071108698 9.188678261496158 9.078113118672762 0 0 0
3005 24 1 17.87709159407864 9.697399000501761 10.504186515824992 0 0 0
3220 24 1 12.276425498461615 9.576703761515645 0.30862558063947465 0 0 0
3221 24 1 12.30815692213912 9.746469668953377 1.8319913296413126 0 0 0
3222 24 1 13.713792755898044 9.837374067627982 2.438319080541097 0 0 0
3223 19 1 17.18125556579401 11.803381713369626 2.206920502990369 0 0 0
3672 29 1 18.28160142059752 16.485471126709715 2.657159783051223 0 0 0
8057 63 1 2.1696137196240026 23.043165003916798 13.966044272310596 0 0 0
3446 19 1 17.058470273341666 12.240933211954548 0.7314749455689 0 0 0
3447 27 1 13.836163607341938 14.284919113343824 4.054186252610093 0 0 0
3448 27 1 15.036397006848564 13.705794472098658 4.841384849892809 0 0 0
3449 27 1 15.35982935096597 14.461891420476897 6.1089027068384985 0 0 0
3450 27 1 16.40387708824668 13.662709160513774 6.901426580218574 0 0 0
3451 27 1 16.749010493007486 14.311846100994208 8.252639315034715 0 0 0
3452 27 1 17.73973945644576 13.589946293141981 9.194522868019252 0 0 0
3453 27 1 18.109877265372695 14.368331152588961 10.440819194281955 0 0 0
7285 16 1 0.7678152824625291 13.28207001255801 10.797876389467762 0 0 0
3669 27 1 12.425546001250458 14.073499747042005 2.0081277812732607 0 0 0
3670 27 1 13.738242218778469 13.731383279248254 2.6638519413003854 0 0 0
3671 29 1 16.9537065307664 16.095148247469595 2.015134667393342 0 0 0
6948 17 1 0.35999390713379775 8.87062081731604 10.775593971240003 0 0 0
7607 21 1 1.149524122522743 18.163842312736673 11.50164029041129 0 0 0
3894 29 1 16.71627423263008 16.564940113258654 0.5699653297402865 0 0 0
3895 32 1 13.731340639323381 18.89476713115868 3.644940935153617 0 0 0
3896 32 1 14.748840433166531 18.215737599791698 4.545778488851578 0 0 0
3897 32 1 14.980087309653705 18.895084122768104 5.8998132909995045 0 0 0
3898 32 1 16.140480497922393 18.280824212737542 6.701984146320049 0 0 0
3899 32 1 16.536135168132013 18.784471353964776 8.060501317877064 0 0 0
3900 32 1 17.783750538863547 18.170851626434683 8.701573162338589 0 0 0
3901 32 1 17.959959417601162 18.564237644824033 10.190074273573398 0 0 0
4116 32 1 11.993958886989704 18.079374265272484 0.1774185990483042 0 0 0
4117 32 1 12.245554911262513 18.656481415696057 1.585860346726353 0 0 0
4118 32 1 13.500575788060544 18.200694789341398 2.3420626694337168 0 0 0
4119 33 1 17.063231852590476 20.439107040401694 2.3048698923770385 0 0 0
1780 16 1 18.587545659411337 20.41218930211774 18.880409865383072 0 0 0
1779 16 1 18.65604463020566 20.657397529108305 17.392982904829115 0 0 0
2109 34 1 18.59345288054895 1.2905819200241764 10.201336858964073 0 0 0
4212 28 1 13.952609375918989 23.512255279044833 3.9868960384096317 0 0 0
4213 28 1 14.976391629056092 22.722071718737347 4.821293666076185 0 0 0
4214 28 1 15.239858164898909 23.266378576998797 6.221576939514706 0 0 0
4215 28 1 16.42459392373675 22.568175697447757 6.864711250264561 0 0 0
4216 28 1 16.751010332692033 23.051126044364256 8.297024940278542 0 0 0
4217 28 1 17.97297384834868 22.366996712009435 9.015475901395465 0 0 0
4218 28 1 18.254406468749956 23.00692532118097 10.378241407633281 0 0 0
4433 28 1 12.286065379142915 22.810499431404878 0.5968756241917131 0 0 0
4434 28 1 12.610087897646073 23.55158798444953 1.9083141925240057 0 0 0
4435 28 1 13.663744197399003 22.79024688211168 2.670606473169208 0 0 0
4436 37 1 16.674119299662962 24.84186757524068 1.0491573851694154 0 0 0
4437 37 1 17.45043885085367 25.606034289656687 2.145697505852888 0 0 0
4438 37 1 17.987937654080266 24.65135874601412 3.1437063355386066 0 0 0
5211 60 1 0.6274290593189374 7.396267492350903 18.953034324163973 1 0 0
4767 41 1 1.9363899626524863 3.185527798777025 20.422037290005484 0 0 0
4768 41 1 1.8793163058992517 2.705565756232953 21.846625508269966 0 0 0
4769 41 1 3.1622184517504373 2.9886304608008296 22.593692114153782 0 0 0
3673 29 1 18.3870200992091 16.057911065123516 4.124322458009126 0 0 0
8286 55 1 8.191848802576018 25.03604228684102 17.270652393854505 0 0 0
5212 60 1 1.8185188646249106 7.856012638417447 19.796979156155196 0 0 0
5213 60 1 2.1315781336843487 7.062920758784256 21.028245326631268 0 0 0
5214 60 1 3.0570875292153277 7.67424887576024 22.054919094076787 0 0 0
5215 60 1 3.2698953307457166 6.923934408233874 23.36899695805929 0 0 0
6456 1 1 0.23247272472267205 2.661878621285008 4.29066159439618 1 0 0
5377 41 1 1.6543490826802927 12.217479608099232 20.159679632360305 0 0 0
5378 41 1 1.9350148951678183 11.666878125701436 21.560735358137034 0 0 0
5379 41 1 3.350465749482208 11.774251395960716 22.130832528711657 0 0 0
5380 41 1 3.4024214322219435 11.246292551887644 23.59013745097265 0 0 0
8056 63 1 0.729630092340922 23.01976131998483 13.387302518707992 0 0 0
5693 46 1 1.8256832738021382 16.12682598715856 20.115013827613588 0 0 0
5694 46 1 1.7527134616375326 16.28641891703111 21.618264878211324 0 0 0
5695 46 1 3.097237528184645 16.15266290781387 22.390395782133545 0 0 0
2771 8 1 11.261382496332942 5.655232717166768 0.09087213507625146 0 0 1
8275 55 1 1.4261881712608995 25.42512052220942 4.877729448704124 0 0 0
5988 48 1 1.4792227087307435 21.418899443334432 19.9299778332031 0 0 0
5989 48 1 1.9743737358087334 20.495465649875104 21.00676752367097 0 0 0
5990 48 1 2.68577082915209 21.32152149096393 22.101092246648705 0 0 0
5991 48 1 3.278853364707386 20.453472968236618 23.23681328171996 0 0 0
8285 55 1 8.251718291871185 25.07705836183388 15.712568447253974 0 0 0
6139 39 1 1.5280452119015948 25.717118020005 20.13856305336123 0 0 0
6140 39 1 1.7633619378177534 25.114933918531207 21.465857174052772 0 0 0
6141 39 1 2.995000140068745 25.663850862830277 22.188670385699574 0 0 0
6142 39 1 3.068192201238034 25.152399548756936 23.60607653593406 0 0 0
8284 55 1 6.893534798882173 24.860141164095285 15.001697982401186 0 0 0
6352 54 1 1.2336224803568256 0.3764014693369689 11.962486780527144 0 0 0
6353 54 1 1.3459739581325942 0.9209960961439446 13.345063054053963 0 0 0
6354 54 1 2.543248292036576 0.46332082134491925 14.187753771636256 0 0 0
6355 54 1 2.6414782485977737 1.1424065902055605 15.538375794152895 0 0 0
6356 54 1 3.8792586009099947 0.7710344267942244 16.422687469325908 0 0 0
6357 54 1 4.086898245305091 1.427145167848636 17.75411581971735 0 0 0
6358 54 1 5.301109106536487 0.8850363150307565 18.49225212684467 0 0 0
6359 54 1 5.414558619963847 1.3429724284339495 19.92024646873394 0 0 0
6360 54 1 6.694909175358639 0.8693141488496327 20.57736625098897 0 0 0
6361 54 1 6.87361359609856 1.3619038305803428 21.99351442196511 0 0 0
6362 54 1 8.001472842571982 0.655935034079333 22.665032078962177 0 0 0
8274 55 1 0.15977486194356474 24.850559297933085 4.096454455547625 1 0 0
8283 55 1 6.872404832801429 25.140694911773814 13.518501696684572 0 0 0
6457 1 1 1.4246122071405776 3.3234992905015694 5.053869539658603 0 0 0
6458 1 1 1.6112960377873564 2.6407141415905016 6.379943655578865 0 0 0
6459 1 1 2.7778978384152575 3.163541878223631 7.251260188372006 0 0 0
6460 1 1 2.877429209970418 2.4530910188826973 8.61389418830073 0 0 0
6461 1 1 4.1386986032182165 2.9293634979445264 9.29106597087788 0 0 0
6462 1 1 4.222375199601538 2.36397265673085 10.709289656096384 0 0 0
6463 1 1 5.565531635045885 2.7527216230643314 11.327656180960698 0 0 0
6464 1 1 5.665214480820688 2.4458105665914527 12.779879804384706 0 0 0
6465 1 1 7.016143965020514 2.769415323785366 13.429862261366457 0 0 0
6466 1 1 7.086623358482655 2.526945820425575 14.943709727288168 0 0 0
6467 1 1 8.460390505857127 2.803088567490758 15.570661829478011 0 0 0
6468 1 1 8.433667152621837 2.5571687934194456 17.121495631030385 0 0 0
6469 1 1 9.858863610642539 2.650103571843043 17.674034968600527 0 0 0
6470 1 1 9.94317882967818 2.363837090734932 19.168923940634787 0 0 0
6471 1 1 11.20118060895362 2.8241625872336495 19.845871206150182 0 0 0
6472 1 1 11.292636940555397 2.4397666537468354 21.31311605544247 0 0 0
6473 1 1 12.554306305927158 2.6960918801012683 22.10651619169884 0 0 0
6474 1 1 12.33801510274496 2.5281575034461334 23.620638148741087 0 0 0
8055 63 1 0.7659645924061667 22.651100828662447 11.88877430670722 0 0 0
6505 54 1 1.054687576114371 5.085790265360211 11.305931782463626 0 0 0
6506 54 1 1.0680651436479403 4.879007958597836 12.805039279182308 0 0 0
6507 54 1 2.464001599298973 4.868712898238339 13.441309550620701 0 0 0
6508 54 1 2.4508467755050494 5.060854445709059 14.984712420207902 0 0 0
6509 54 1 3.7776136732767474 5.16589391314801 15.727134442517967 0 0 0
6510 54 1 3.6296248950945316 5.28165244932637 17.28295347212567 0 0 0
6511 54 1 4.984892244747835 5.278494594280148 18.107718162685746 0 0 0
6512 54 1 4.933284113877654 5.314758489060887 19.607806102645302 0 0 0
6513 54 1 6.348075058120654 5.092777562837852 20.24083731260891 0 0 0
6514 54 1 6.44298254644342 4.919634824544021 21.74791732722136 0 0 0
6515 54 1 7.881662091024159 4.779284694158536 22.22334843164 0 0 0
6960 17 1 8.96922811084486 9.096608627156415 23.556799214963657 0 0 0
8289 55 1 10.937269341221727 25.170562590644327 20.126799188135603 0 0 0
6725 9 1 1.2787712742618629 7.733643630453346 4.824932064231999 0 0 0
6726 9 1 1.6250889560521145 7.103526888855907 6.165186527162707 0 0 0
6727 9 1 2.7955257483625786 7.685203773630241 6.978148443371677 0 0 0
6728 9 1 2.946994300655717 7.142610906051562 8.437816575750364 0 0 0
6729 9 1 4.225013279309092 7.616009556472166 9.19606017238839 0 0 0
6730 9 1 4.3922186628895945 6.985103848479804 10.575191014627034 0 0 0
6731 9 1 5.588031350431746 7.518419494717515 11.409267047533033 0 0 0
6732 9 1 5.8648692786078875 7.006535441007152 12.824669580039322 0 0 0
6733 9 1 7.016720245176709 7.59331497414199 13.678239770682955 0 0 0