LAMMPS data file via write_data, version 23 Jun 2022, timestep = 11111117

9706 atoms
2 atom types
9690 bonds
3 bond types
9674 angles
3 angle types
9658 dihedrals
3 dihedral types

0 36.89775039 xlo xhi
0 26.67072 ylo yhi
16.065791342186998 220.6858130578426 zlo zhi
0 6.437791420765692 0 xy xz yz

Masses

1 14
2 15

Pair Coeffs # lj/cut/omp

1 0.0914 3.95
2 0.1947 3.75

Bond Coeffs # harmonic/omp

1 449.5 1.53
2 449.5 1.53
3 449.5 1.53

Angle Coeffs # harmonic/omp

1 62.0967 114
2 62.0967 114
3 62.0967 114

Dihedral Coeffs # opls/omp

1 1.411 -0.271 3.145 0
2 1.411 -0.271 3.145 0
3 1.411 -0.271 3.145 0

Atoms # molecular

1 3 1 9.104221140902157 2.2417369431116168 25.53256957510863 0 0 0
2 3 1 10.205919154110436 1.5485715089144205 26.352066786345695 0 0 0
3 3 1 10.95823660502558 2.284033454441435 27.503360782818987 0 0 0
4 3 1 11.829424150925131 1.4984550518034918 28.459298516519134 0 0 0
5 3 1 12.888390878700994 2.3629733534592345 29.147666961909295 0 0 0
6 3 1 13.921564969481784 1.4852445641224048 29.861594418142516 0 0 0
7 3 1 14.18987005685015 1.9341386815307653 31.33557065964108 0 0 0
8 3 1 15.44657924652946 1.256252421048214 31.98028326758247 0 0 0
9 3 1 15.648075363060986 1.6444508672131672 33.478646465017995 0 0 0
10 3 1 16.77478587019262 0.9987627600024557 34.16437936228954 0 0 0
2490 15 1 7.486848499629673 26.304307599309215 16.997111006274192 0 0 0
9256 61 1 3.6461007795890747 22.238890247108774 23.209553155631166 0 0 0
9342 63 1 2.560575195231622 24.29118020539945 27.460433628265484 0 0 0
4154 27 1 18.523618525636365 19.882676843440855 25.114887897352503 0 0 0
7867 52 1 4.016624159477649 6.732772051395282 29.95324934905706 0 0 0
1724 21 1 9.957284421678988 16.86795105052131 19.706077003812197 0 0 0
1882 1 1 2.3691237552697677 18.995499832883265 16.561677636975542 0 0 1
3702 44 1 18.357292155499845 12.090841480584068 19.949137280182594 0 0 0
220 3 1 5.789974161692049 1.2305937355761456 20.026286878452158 0 0 0
221 3 1 6.260820261570486 2.125394702316533 21.174013768465827 0 0 0
222 3 1 7.181595190756037 1.3760544855228791 22.137303301469103 0 0 0
223 3 1 7.538100682774192 2.1084644306900007 23.43406643818208 0 0 0
224 3 1 8.660081118513038 1.5352896013740867 24.24109429881166 0 0 0
225 29 1 11.879074031424937 4.032891534200083 22.002091755924464 0 0 0
226 29 1 12.20674467198595 4.578220107091271 23.35763455901052 0 0 0
227 29 1 13.473336236667551 4.056562719660765 24.029623805164945 0 0 0
228 29 1 13.557891041997264 4.255897318454475 25.517112776150384 0 0 0
229 29 1 14.94814941731407 3.7411678082426887 25.83941714694064 0 0 0
230 29 1 15.465129006589983 4.318703707317727 27.180921105876493 0 0 0
231 29 1 16.529969119174616 3.521812304586262 27.78135222522007 0 0 0
232 29 1 17.04566637427079 3.974853368912556 29.105190283072695 0 0 0
4610 29 1 12.24490690256373 24.112687313707383 16.55399712500053 0 0 0
4611 29 1 13.175823924607254 23.32859907000563 17.38898223378986 0 0 0
8020 54 1 0.6703725333076854 7.968465131852394 21.30741671979766 1 0 0
3175 21 1 16.242014068368583 8.430182976348243 16.966757237491805 0 0 0
1975 41 1 17.494164832368746 21.96197854301995 28.64517236195516 0 0 0
2874 20 1 17.821821558624023 5.730638410460044 23.51348935129532 0 0 0
445 29 1 8.692517981005409 3.2980882319123364 18.062113801290224 0 0 0
446 29 1 9.045157971530081 3.9999106690659505 19.34388705049747 0 0 0
447 29 1 10.31382528975236 3.5030464431300476 20.06016115487452 0 0 0
448 29 1 10.41504599795549 4.163719381035491 21.435603851947935 0 0 0
449 51 1 4.6756159702958735 6.356267861953317 19.672723514054574 0 0 0
450 51 1 5.902507988408799 5.918207144240724 20.333261488922073 0 0 0
451 51 1 6.251428154651433 6.653138281469913 21.654732541197966 0 0 0
452 51 1 7.245477076342276 5.946762143617744 22.566896125213923 0 0 0
453 51 1 8.00054388991925 6.727687189282495 23.592798928303115 0 0 0
454 51 1 8.695976741455361 5.882890204893211 24.55497051126914 0 0 0
455 51 1 9.422094081394969 6.617759580192847 25.642173444417523 0 0 0
456 51 1 10.448029352753013 5.8578414020806004 26.408331839082482 0 0 0
457 51 1 10.873175774225071 6.72085979347971 27.64102563940456 0 0 0
458 51 1 11.919064802170778 5.953191742075676 28.43406591576906 0 0 0
459 51 1 12.274623234531479 6.751684599030451 29.700416589108784 0 0 0
460 51 1 13.417583790869443 5.9050140238836635 30.320640346659093 0 0 0
461 51 1 13.99041171947443 6.534683688746475 31.593918623900876 0 0 0
3924 28 1 15.99609939364543 14.449807687331598 21.77401415768164 0 0 0
3091 33 1 11.677146820725103 6.19252368537279 16.996691251435458 0 0 1
9641 64 1 6.602573661021142 0.2972542703055447 27.90487942742235 0 1 0
9026 59 1 4.708619919407592 19.272315182885066 30.533185690142684 0 0 0
9253 61 1 1.1584428654315024 21.238302195406877 20.34792155436484 0 0 0
9634 64 1 1.3340671241734294 25.95748710711898 20.587310756469826 0 0 0
5543 34 1 1.9129198716668316 8.062174762389217 32.89261260861735 0 0 0
12 3 1 18.4562405154575 1.3190915567528436 36.02555946589482 0 0 0
671 51 1 3.0487075800300483 6.397886704507358 17.749635061727474 0 0 0
672 51 1 4.106409777434517 5.599733216422425 18.456199698910307 0 0 0
673 55 1 8.803596740158229 8.703330988170466 19.53005030481983 0 0 0
674 55 1 9.988602366100283 8.051618920038973 20.13312469263269 0 0 0
675 55 1 10.499564589082787 8.689920988538761 21.428336603639888 0 0 0
676 55 1 11.754638142814105 8.058213283407772 22.085051699170126 0 0 0
677 55 1 12.058443190389518 8.81480695715218 23.361656668132735 0 0 0
678 55 1 13.311344431320114 8.239094310873872 23.994780309076816 0 0 0
679 55 1 13.563218098502174 8.651016324327003 25.46170479119524 0 0 0
680 55 1 14.825376752930065 7.98755830576436 26.099733549596003 0 0 0
681 55 1 14.949782622948558 8.270600923176884 27.573245440572435 0 0 0
682 55 1 16.229559317781604 7.652116167505477 28.1246917751223 0 0 0
683 55 1 16.60874683907452 8.26501313459552 29.499425622620556 0 0 0
8243 55 1 1.158458936207266 10.4596509377733 27.286836037621566 1 0 0
3703 28 1 18.41796156124237 15.4426700774675 24.665213101775684 0 0 0
670 51 1 2.6747011154424185 5.7602154860194705 16.430425241686482 0 0 0
216 2 1 2.5555246604365154 0.8855936737924328 16.132664095913544 0 0 1
6819 46 1 3.3659885872990762 21.406388374655503 34.98880209593892 0 0 0
7417 63 1 1.5895583933596533 1.4777843614073647 27.058560933942516 1 0 0
896 55 1 8.37934346608049 8.218912396044539 18.202975565920177 0 0 0
897 5 1 3.9479437338327514 10.2668556560737 18.812906121550288 0 0 0
898 5 1 4.969128563390678 11.213994889319677 19.481828028601115 0 0 0
899 5 1 5.630558763921234 10.482712602693093 20.667181289622704 0 0 0
900 5 1 6.69945496062237 11.237137063565843 21.543243395927004 0 0 0
901 5 1 7.217227670705056 10.412815011947202 22.788980448281325 0 0 0
902 5 1 8.009711114925024 11.273752316043312 23.743300793435417 0 0 0
903 5 1 8.70400757714843 10.496417956362913 24.903623439420915 0 0 0
904 5 1 9.51438150513723 11.39832342440887 25.86127319293049 0 0 0
905 5 1 10.336300446582758 10.601931994611187 26.86151694841167 0 0 0
906 5 1 11.059712736818986 11.47659158542309 27.876122114196537 0 0 0
907 5 1 12.085845881848106 10.650087144431946 28.66730345009507 0 0 0
908 5 1 12.835959024404326 11.388152648063244 29.768225036525557 0 0 0
909 5 1 13.573295981836626 10.389848047995924 30.656615259893208 0 0 0
910 5 1 14.406763117789117 10.999851972140775 31.779854907611195 0 0 0
6437 14 1 2.9827369230657492 16.959957454493686 35.24855960672696 0 0 0
7639 51 1 4.475434983596864 3.8363949160208763 24.43251038227497 0 0 0
8414 58 1 1.2121481449447928 12.590259637031512 20.744214118326447 0 0 0
3097 21 1 17.626509649561758 8.066207978086055 17.542451559139174 0 0 0
895 55 1 7.359434678010464 9.013603076428463 17.40991369946419 0 0 0
7425 63 1 7.624335048084911 1.2619790508334865 35.17839224868611 0 0 0
9648 64 1 12.395073252298026 25.723855766373067 34.51991372822398 0 0 0
3701 36 1 17.66909020663992 12.922836736967175 18.830375153354908 0 0 1
1120 5 1 3.4424190230143545 10.835971226623732 17.52204848296555 0 0 0
1121 19 1 10.629251500961452 13.35801600429746 21.16786400763198 0 0 0
1122 19 1 11.128615512898445 12.560135415040945 22.37903586579958 0 0 0
1123 19 1 12.04192357510594 13.362792502227105 23.305477629051424 0 0 0
1124 19 1 12.53070391565901 12.638416483137917 24.568047841655073 0 0 0
1125 19 1 13.769606096796652 13.297647032710666 25.217071934977056 0 0 0
1126 19 1 14.430162786514202 12.560545680906717 26.373801087236235 0 0 0
1127 19 1 15.514767302317447 13.23667155260103 27.240294686168166 0 0 0
1128 19 1 15.964928775325493 12.357955068331538 28.435330027360255 0 0 0
4532 32 1 17.454360041104632 21.08046953353136 17.317858851012055 0 0 1
3098 21 1 17.840645629352665 8.64567334463593 18.903880651344675 0 0 0
2501 49 1 17.95788777831783 1.7400999139520392 24.677307182931564 0 0 0
8019 54 1 0.1489852633363404 8.702866110602972 20.12514730660433 1 0 0
5091 35 1 4.328150820504721 4.28642229136349 36.097517079661316 1 0 0
7424 63 1 6.87391769993063 2.2551160378525283 34.29810536114973 0 0 0
8638 57 1 2.5234428123448054 15.468675899453258 27.639596371037257 0 0 0
1342 19 1 8.597063149739087 12.583113525886697 17.949042101940137 0 0 0
1343 19 1 9.492033141659688 13.447722770915952 18.85688032442525 0 0 0
1344 19 1 9.972537565074452 12.537683233974418 20.008900563743275 0 0 0
1345 10 1 4.823626551504834 15.704123032528079 19.375613108800646 0 0 0
1346 10 1 5.433096136352465 14.883807606307148 20.447109128273006 0 0 0
1347 10 1 6.279435706309371 15.625534150757145 21.489340850964854 0 0 0
1348 10 1 6.876091085913262 14.81571544298673 22.65330954023828 0 0 0
1349 10 1 7.97869864714628 15.522604756682513 23.391314005342146 0 0 0
1350 10 1 8.470584277709769 14.820419259758811 24.70709405828775 0 0 0
1351 10 1 9.747899676321412 15.497031984631437 25.2092004956371 0 0 0
1352 10 1 10.038649238963343 15.055249649756512 26.694909876578087 0 0 0
1353 10 1 11.301990464530684 15.682258704779962 27.269872969001327 0 0 0
1354 10 1 11.615394939979685 15.002510080526392 28.641904591856843 0 0 0
1355 10 1 12.98546854709159 15.415196157890321 29.129817164417325 0 0 0
1356 10 1 13.403114784022339 14.89238637565527 30.50992014273873 0 0 0
1357 10 1 14.767147125327112 15.397591991660923 31.067737610317874 0 0 0
233 29 1 18.263675289550797 3.3295829255467573 29.81449777648623 0 0 0
5090 35 1 3.141059113779518 3.523716686121288 35.43707771742096 1 0 0
1884 1 1 3.816454582143107 19.032972419932495 18.610065787167557 0 0 1
6434 14 1 1.2225544848002277 17.538301975052324 31.82417730762431 1 0 0
3926 28 1 17.55495692368481 14.535857051182791 23.82498844282178 0 0 0
3925 28 1 16.819208135870216 15.262729020685308 22.738819588666118 0 0 0
4769 20 1 16.437518234211453 26.267910001317436 16.15654494555572 0 0 0
2871 19 1 18.359132712443003 4.059417888084215 18.567244089734874 0 0 1
1567 10 1 3.0732486490635185 15.535790392700129 17.47692806880716 0 0 0
1568 10 1 4.082542192077295 14.803885408242536 18.384925606069352 0 0 0
1648 21 1 12.024600278675006 17.651108888170082 23.004155360910076 0 0 0
1649 21 1 13.258114450090849 16.994539597414224 23.724211785506647 0 0 0
1650 21 1 13.654049950933226 17.70387912924637 25.001627982271792 0 0 0
1651 21 1 14.949815814830844 17.060302987492936 25.674695102273205 0 0 0
1652 21 1 15.71735623979818 17.76818253477371 26.775837475751462 0 0 0
1653 21 1 16.044455944377958 16.811833028972707 27.892882047967177 0 0 0
1654 21 1 16.91367376258455 17.642555780653296 28.80432527438466 0 0 0
6816 46 1 1.241776902903352 22.22596403978875 31.65865046708577 1 0 0
4370 26 1 11.973578672666353 19.50443144014688 17.066622095854786 0 0 1
4371 26 1 13.054716517892103 18.84142443833504 18.010771952882614 0 0 1
9347 63 1 6.345132795945987 23.91589476737218 32.66632086948892 0 0 0
3256 48 1 13.398009862917515 10.508395817568184 19.24158063758799 0 0 0
7416 63 1 0.6737544584059721 2.3075568588756723 26.099570671852952 1 0 0
5544 34 1 2.323275496502951 8.631064489969289 34.26995558662268 0 0 0
2875 20 1 18.00803510056726 6.060871556335871 24.957432150428488 0 0 0
9637 64 1 3.366090633696494 0.25141471442892904 23.797977219230503 0 1 0
1725 21 1 10.833088657932622 17.677132308042008 20.694594307449943 0 0 0
1726 21 1 11.584737828029644 16.906388108567214 21.75220323098357 0 0 0
1727 11 1 10.597242509535938 19.317785306102962 26.132910215366646 0 0 0
1728 11 1 11.39976869341473 20.13746678113872 27.151379484057436 0 0 0
1729 11 1 11.895489488194473 19.278613100910324 28.31605457244399 0 0 0
1730 11 1 12.683525282229159 20.191109922852664 29.245411297041663 0 0 0
1731 11 1 13.46808601641088 19.355619174594494 30.282867406808506 0 0 0
1732 11 1 14.262012685667594 20.145160341998576 31.260557548525398 0 0 0
1733 11 1 15.175943375494002 19.242982550341708 32.13956302227177 0 0 0
1734 11 1 16.23171734589208 19.985300123362386 32.9025322760435 0 0 0
1735 11 1 16.402603997489734 19.257969845419762 34.24913704760641 0 0 0
1736 11 1 17.724222629819923 19.800267831507252 34.93430582998875 0 0 0
8644 57 1 7.010043350413236 15.475717866179723 33.9237436854487 0 0 0
4147 39 1 16.77278426812596 17.401040759402974 16.633134988844844 0 0 1
7420 63 1 4.0011224428897485 2.5785380785002783 29.88556862284281 0 0 0
7635 51 1 1.3576999972626695 3.6974096104709893 20.32079735892935 1 0 0
8246 55 1 3.8312005250274446 11.042157183109204 29.98237657478696 0 0 0
9644 64 1 9.083092749235552 25.753717330701335 30.738507379076296 0 0 0
8247 55 1 4.028251621805305 10.579336247116608 31.425222784292913 0 0 0
1800 11 1 5.520932190282646 19.320544028481695 20.49036434828465 0 0 0
1801 11 1 6.566671007354067 20.210512392398584 21.140092953217884 0 0 0
1802 11 1 7.127250529489111 19.45923442508092 22.372758568597813 0 0 0
1803 11 1 8.22406496312698 20.146536065508197 23.240949919296142 0 0 0
1804 11 1 8.74621589581984 19.30362452224971 24.41022740909499 0 0 0
1805 11 1 9.767262620827317 20.085432157996426 25.18037026359876 0 0 0
1964 41 1 8.55044031830784 21.194168724511897 17.76510977999702 0 0 0
1965 41 1 9.205081472991417 22.013356661283957 18.886034489452026 0 0 0
1966 41 1 9.964232067048025 21.156395530825087 19.849540157319925 0 0 0
1967 41 1 10.72762825055221 22.028185006609384 20.92715961625189 0 0 0
1968 41 1 11.487128753676014 21.34001908953792 22.08064441338316 0 0 0
1969 41 1 12.30609678213659 22.210018459283173 22.958387684274392 0 0 0
1970 41 1 12.915226064966628 21.44870039294429 24.123153400667714 0 0 0
1971 41 1 14.187780201144893 22.101573332485575 24.657269238118133 0 0 0
1972 41 1 14.459357064724491 21.63717125097569 26.07381918868837 0 0 0
1973 41 1 15.648783113671625 22.216318838797694 26.82655916963077 0 0 0
1974 41 1 16.284677751863867 21.334937370193416 27.91849956895551 0 0 0
8413 58 1 0.7746538471170203 13.390159088710696 19.596405914575897 1 0 0
3092 33 1 12.801442733419837 5.578467774767498 17.725547280103587 0 0 1
465 51 1 17.060964337767125 6.384874165007306 35.62433971742698 0 0 0
1723 21 1 9.270285194248858 17.62979536309704 18.61163726916891 0 0 0
8034 54 1 12.173798179994506 8.060862172836291 34.65989486467019 0 0 0
8802 58 1 6.033157868488679 17.06163391719224 26.673154608780788 0 0 0
2869 19 1 16.51669962554781 4.094452192858001 16.709394900837605 0 0 1
2043 14 1 5.963718699887621 23.766180742539248 19.734779964986643 0 0 0
2044 14 1 6.257224560319567 24.08645026328923 21.15575126964616 0 0 0
2045 14 1 7.7705298817585975 24.04967458718103 21.533134967781912 0 0 0
2046 14 1 7.941271344584566 24.54689019599155 22.952323934395018 0 0 0
2047 14 1 9.124006645898096 24.00708218414821 23.65107104663784 0 0 0
2048 14 1 9.368552955785002 24.624288779540016 25.02757328778746 0 0 0
2049 14 1 10.59739784510026 23.994383423812682 25.647468722107146 0 0 0
2050 14 1 10.869698891776023 24.275125317742148 27.163031841609723 0 0 0
2051 14 1 12.14848905967562 23.77238571317181 27.744513468373324 0 0 0
2052 14 1 12.416579961744116 24.32606461548211 29.096623540420968 0 0 0
2053 14 1 13.571657244489733 23.62459097129214 29.826954944623097 0 0 0
2493 49 1 11.972924894002784 1.637099841169128 16.506931766768233 0 0 0
3093 33 1 13.239182756683451 6.233667156886475 18.999160751157724 0 0 1
685 55 1 18.119734395238936 8.256965591729575 31.640911132827107 0 0 0
7864 52 1 1.3973042042460029 6.011611821237561 27.149639025707753 0 0 0
9640 64 1 6.0164392595791485 26.34198856935065 26.58392977661665 0 0 0
8252 55 1 8.334466258548368 10.876786226207193 36.228727747881535 0 0 0
7419 63 1 3.1026908353990312 1.567150176193636 29.170083321821316 0 0 0
3262 48 1 17.849706128441284 10.619046134722952 25.344310445428604 0 0 0
1340 19 1 6.831438602036973 12.413627331823536 16.22253045042783 0 0 0
2264 14 1 2.8115741185041725 24.034832118948245 17.488913150825812 0 0 0
2265 14 1 4.276851214729402 24.28188994378712 17.844793216203154 0 0 0
2266 14 1 4.570940834455919 24.14020292311936 19.350564909364742 0 0 0
2267 15 1 8.845740362081187 25.73842443918173 17.482343614386185 0 0 0
2268 15 1 9.280770737681202 26.453643512959754 18.776326706729094 0 0 0
2269 15 1 10.398647365773904 25.790459090180562 19.572370213645694 0 0 0
2270 15 1 10.660622073113858 26.50308580515575 20.86096253584617 0 0 0
2271 15 1 11.759216873294159 25.895131726025035 21.781225126954148 0 0 0
2272 15 1 12.074936761140787 26.46327136981582 23.153515538215903 0 0 0
2273 15 1 13.386378472469175 26.094826859481753 23.76825080384083 0 0 0
2274 15 1 13.74455680038629 26.618359444512883 25.153742240305377 0 0 0
2275 15 1 15.071029565734818 25.96879373791462 25.62963481887411 0 0 0
2276 15 1 15.397063737555982 26.401914625999975 27.078670160909738 0 0 0
2277 15 1 16.61128450709978 25.748326426962702 27.68391128275803 0 0 0
9638 64 1 4.479734463709481 26.23747291449052 24.59850191849558 0 0 0
466 51 1 18.268605161727297 5.764988873031138 36.36752186111943 0 0 0
912 5 1 15.808875114429362 10.6347374535463 33.9303265280048 0 0 0
7421 63 1 4.809364845112301 1.845678529737415 31.006574029360984 0 0 0
7199 40 1 4.037533119247892 26.394940639906373 36.31273709647019 1 0 0
9350 63 1 8.612099517098333 24.351761410934515 35.87286274321933 0 0 0
7650 51 1 12.710707287460899 4.253251287534166 35.84777482200105 0 0 0
8640 57 1 3.9671953765397987 15.526683264464426 29.810288786551205 0 0 0
8798 58 1 2.6795264873929736 17.111976162022394 22.85815322237227 0 0 0
217 2 1 2.9862578757458267 1.6354380478870365 17.348665995036033 0 0 1
2494 49 1 12.991978650868539 0.8446661945516358 17.351831476073773 0 0 0
2495 49 1 13.410474789979203 1.6405602211994994 18.577243228575426 0 0 0
2496 49 1 14.660863284368244 1.1332808853941756 19.26098419188591 0 0 0
2497 49 1 15.09388614646263 1.8780763513991652 20.56441747832686 0 0 0
218 3 1 4.028640594622388 0.9436475138383934 18.267007888690152 0 0 0
8639 57 1 3.074275660884669 14.662411577923455 28.813270847555792 0 0 0
7637 51 1 2.941630544632407 3.7544895323886696 22.35352168267852 1 0 0
2499 49 1 16.378601125483893 1.5893969361170717 22.6662177588382 0 0 0
2058 14 1 17.424167440421417 24.20003668349306 34.91886092819619 0 0 0
9265 61 1 10.65095907426415 21.165651797227756 32.094241291667586 0 0 0
2498 49 1 15.994294002365773 0.9129583143833215 21.34382661383386 0 0 0
2059 14 1 18.518338443350878 23.47722969197014 35.678057413734074 0 0 0
1656 21 1 18.58396778074382 17.74146176881352 30.699756191414334 0 0 0
1119 5 1 2.2426229641427287 10.27853238452518 16.8491694969493 0 0 0
1647 45 1 7.366626935362825 17.628614346771 16.83326227442686 0 0 1
4692 20 1 18.151819941784083 26.44880979952229 18.129189416529776 0 0 0
1976 41 1 17.889477041539052 21.264186516887268 29.900105140516146 0 0 0
8023 54 1 3.7219090897393206 8.714580196656406 23.737121919720003 0 0 0
1655 21 1 17.723823070500682 16.79707152994124 29.855490631302185 0 0 0
3095 20 1 14.885929867444336 6.236824876601414 21.047035367378086 0 0 0
3096 20 1 16.17999759123278 5.740241352239015 21.668308718984292 0 0 0
9635 64 1 1.8646890789792012 0.08983655784840058 21.7777058570802 0 1 0
6818 46 1 2.7445948995365046 22.18828994122052 33.87810080024921 1 0 0
9269 61 1 13.763949797519498 21.396230404733743 36.299824729301314 0 0 0
7641 51 1 5.903566060312716 3.7879827278512415 26.618275614287803 0 0 0
1341 19 1 7.500136865006274 13.381042779050164 17.187362923810326 0 0 0
8022 54 1 2.6934045548779726 7.979240213715736 22.872870723882556 0 0 0
3257 48 1 14.62079532897988 9.878161071384177 19.860185299928837 0 0 0
3258 48 1 14.859713092897854 10.376747980882998 21.30792499386407 0 0 0
3259 48 1 16.08908105273683 9.805094177674144 22.058084882316372 0 0 0
3260 48 1 16.08108982903889 10.354090846240208 23.478538116937585 0 0 0
3261 48 1 17.40843146739146 9.834999445312283 24.124135180317097 0 0 0
4531 32 1 16.887020606139256 21.98721703973286 16.18769018063816 0 0 1
9348 63 1 7.002445739582785 24.67613708525663 33.86301552393601 0 0 0
8796 58 1 1.0320518959412102 16.982561786520122 20.76020512504145 0 0 0
7649 51 1 12.325916451243732 3.657776031779264 34.53760084885042 0 0 0
464 51 1 16.46142746884022 5.574351560372932 34.46301994984405 0 0 0
9645 64 1 9.741714671961965 26.645823814796792 31.845948173819977 0 0 0
914 5 1 17.179630778796643 10.638655274288721 35.968404120897006 0 0 0
6817 46 1 1.8655469833158587 21.46323100385757 32.8606993058365 1 0 0
8428 58 1 12.241759355355189 12.583110978496928 34.930258833746066 0 0 0
8646 57 1 8.789899299380808 15.514510708895306 35.76184288230388 0 0 0
4372 27 1 13.703621840615726 19.60888186670031 19.114181149841013 0 0 0
9254 61 1 1.5352189309835511 21.8768743014744 21.65541781607386 0 0 0
7426 63 1 8.563371007807795 2.0102658585547597 36.11194545963042 0 0 0
7872 52 1 7.690349090493309 6.089655212032437 35.239143322410094 0 0 0
8415 58 1 2.407251477857746 13.197619137281519 21.4342003633151 0 0 0
2057 14 1 16.750672181488298 23.441258838707004 33.78128161312951 0 0 0
4153 27 1 17.986873027236243 19.18040982601607 23.820948590065868 0 0 0
9346 63 1 5.496369718661761 24.76320664874743 31.72576665315549 0 0 0
8641 57 1 4.1734031398687135 14.771634972565131 31.164860176147798 0 0 0
8642 57 1 5.257430161417751 15.521094315457324 31.924150869853626 0 0 0
3478 48 1 11.905276723983869 10.597612001650564 17.112715734366688 0 0 0
4151 27 1 16.389249803399668 19.087176562087 21.895272819581216 0 0 0
4152 27 1 16.908148325374725 19.939555419672747 23.079256915315824 0 0 0
5542 34 1 0.729657057809906 8.832437021209671 32.278596595613664 0 0 0
8795 58 1 0.5324372567541724 17.580480786049442 19.471218312862398 1 0 0
7195 40 1 1.2649558429800427 26.427007202963765 31.925213063672075 1 0 0
1722 21 1 8.368065534400627 16.809276546499795 17.648588724252445 0 0 0
7640 51 1 4.7386250968632835 4.388772890178264 25.799798458205476 0 0 0
913 5 1 16.558646387346595 9.76379308711013 34.8701721896655 0 0 0
5089 35 1 2.7390214446621077 3.9570917291903847 34.056982514119625 1 0 0
6435 14 1 1.3421753605765696 17.006412343469123 33.1879953592329 0 0 0
8801 58 1 5.3856164495893335 17.76370830272692 25.487426264258307 0 0 0
5992 34 1 1.3855220407159918 12.644923002172767 33.2345368060672 0 0 0
9344 63 1 4.013647021821141 24.607166854380058 29.60418883897517 0 0 0
3922 24 1 14.592435892131828 14.430264441023398 19.618461009201617 0 0 1
4533 29 1 13.98078832325442 24.01428646676743 18.533448906767024 0 0 0
4534 29 1 14.436316641019618 23.114404234654724 19.692791465382605 0 0 0
4535 29 1 15.49875671381055 23.84077636631389 20.45385415252131 0 0 0
4536 29 1 15.943052555360536 23.173429050412814 21.740789291038627 0 0 0
4537 29 1 17.040086566026748 24.02664613061731 22.385542117953584 0 0 0
8035 54 1 12.70739961044377 8.88954439278704 35.76648822298124 0 0 0
6436 14 1 2.6778140661522274 17.39851921745621 33.83505375744626 0 0 0
4691 20 1 17.170257427303167 25.567480418147916 17.27583489012465 0 0 0
7866 52 1 2.9568704900293574 5.984931711731656 29.202471857471956 0 0 0
2870 19 1 17.112598867585106 3.4346336507869792 17.93821003931354 0 0 1
9268 61 1 13.056425373538293 22.062172454583422 35.179404868144715 0 0 0
3921 24 1 13.677725544747119 15.402731526332825 18.8746353450744 0 0 1
7868 52 1 4.666533793965786 5.964783998142868 31.128606752450228 0 0 0
2054 14 1 14.041439766025205 24.32781939507105 31.090591694684754 0 0 0
463 51 1 15.341048094035836 6.361264342340295 33.75655492768912 0 0 0
3094 20 1 14.502411471127557 5.678801601348677 19.63850882772622 0 0 0
7418 63 1 2.1637867350717808 2.2745087054656716 28.190084548443995 1 0 0
8416 58 1 2.6128520169795264 12.593189396772624 22.822687004047005 0 0 0
9025 59 1 3.889723065932378 20.09429850264842 29.528111280212315 0 0 0
9264 61 1 10.060705178530236 21.959204323612013 30.98527479001143 0 0 0
9029 59 1 7.40948545082146 20.01529596788504 33.46939553296707 0 0 0
7196 40 1 1.7598482235213018 25.74090165766287 33.15889256756431 1 0 0
684 55 1 17.604412259208473 7.496855075893038 30.406640012011493 0 0 0
1130 19 1 17.768824242045273 12.159776684863193 30.335077941085565 0 0 0
9263 61 1 8.974810496361314 21.23800634991069 30.19815982264172 0 0 0
9262 61 1 8.3686497739584 22.208238444731144 29.199332902978362 0 0 0
5995 34 1 4.077838554880483 13.329834539116426 35.938129607994405 0 0 0
8799 58 1 3.9444747231570774 17.73276675792767 23.46463241471745 0 0 0
9028 59 1 6.185720758349139 19.4555405512913 32.689039591663295 0 0 0
7636 51 1 1.612855823700249 4.1929909688299025 21.747193457071063 1 0 0
9261 61 1 7.411673779347059 21.512277646021758 28.265339962372984 0 0 0
4374 27 1 15.434461785328212 19.758592830485753 20.97571902549071 0 0 0
5993 34 1 2.4268674555828422 13.369126452432045 34.11867419839147 0 0 0
8800 58 1 4.2237791525012245 17.09204763946447 24.83414449498059 0 0 0
9260 61 1 6.796945198048649 22.400182696721007 27.13324807524286 0 0 0
7638 51 1 3.152314656534604 4.225348067167598 23.768986720227787 1 0 0
8637 57 1 1.3787702504149717 14.728485900332856 26.853103773389243 0 0 0
1358 10 1 14.978351821032247 14.960145031144503 32.51794261309824 0 0 0
219 3 1 4.607965886503464 1.933448655851716 19.308907879811212 0 0 0
9255 61 1 2.8191429384028366 21.315133670446563 22.27095058805057 0 0 0
9258 61 1 5.441532760938293 22.417459375871907 24.932511651328056 0 0 0
9027 59 1 5.728317636664548 20.078465215380664 31.340365463186274 0 0 0
234 29 1 18.50728838447817 3.937189938421631 31.213019971444773 0 0 0
9639 64 1 4.885264568721888 0.3833478667164866 25.794084022074166 0 1 0
2278 15 1 17.108163963689233 26.487709525183295 28.954744694024964 0 0 0
1360 10 1 16.549073840160254 14.948280298435972 34.49834709433668 0 0 0
8808 58 1 10.758080396475906 16.661041148388065 32.55248331855377 0 0 0
9351 63 1 9.686143250261926 23.41413505310147 36.429580859842844 0 0 0
7423 63 1 6.091742827277493 1.5477092945348963 33.20765483337357 0 0 0
7197 40 1 2.6857198291471023 26.533295508255 34.05360874811345 1 0 0
3255 48 1 12.982401397755233 9.921371101743372 17.888534514025462 0 0 0
8643 57 1 5.811920859812349 14.876906553524723 33.19145401526178 0 0 0
8803 58 1 6.904563062156192 17.973158464125927 27.50265277240215 0 0 0
8806 58 1 9.30013482412123 17.16122943653801 30.496370161178334 0 0 0
2873 20 1 16.54258969599945 6.360112953040442 22.991828258056863 0 0 0
7871 52 1 7.026648247241101 6.882799500923764 34.132741963472796 0 0 0
5546 34 1 3.843805932216106 8.489898807090658 36.291520880302755 0 0 0
8024 54 1 4.077283263475511 7.975521785977335 25.00761203404884 0 0 0
9022 59 1 1.3374474666866245 19.13280563300481 26.744009488005258 0 0 0
8797 58 1 2.2442780190715528 17.590462219765982 21.500241306194944 0 0 0
7642 51 1 6.351142989117943 4.520447187880657 27.899290598521766 0 0 0
7643 51 1 7.41373745186729 3.7765551965601882 28.674794118528325 0 0 0
7644 51 1 8.07397440763846 4.578080374386909 29.75870014384659 0 0 0
7645 51 1 9.016970069858273 3.825797745855394 30.722178806521715 0 0 0
7646 51 1 9.51991877782531 4.648586817002536 31.947536355289614 0 0 0
7647 51 1 10.51890416748064 3.774550346833451 32.680960805657705 0 0 0
7648 51 1 11.103492014222402 4.42424213440759 33.94487085783206 0 0 0
8636 57 1 0.8213577224056992 15.46639931215922 25.624752828181343 1 0 0
1566 10 1 2.5950544227687753 14.622668082528254 16.367970742554107 0 0 0
3920 24 1 13.016157552593494 14.451852133020784 17.851896977809243 0 0 1
1883 1 1 3.0883984488848197 19.881643513091948 17.549438977188913 0 0 1
9021 59 1 0.9198233332507983 19.747784745781683 25.41879629152976 0 0 0
9649 64 1 12.97735917206482 26.560204942536245 35.65204287102209 0 0 0
8427 58 1 11.684010081017218 13.246078294361002 33.64639207565538 0 0 0
7873 52 1 8.833689197514474 6.8549314897703715 36.02594309324569 0 0 0
6438 14 1 4.23130749645691 17.516482189881533 35.93624743508465 0 0 0
7865 52 1 2.2745395592759836 6.781405159444665 28.115028820061617 0 0 0
8809 58 1 12.06602903226155 17.250917346619485 33.185836681940785 0 0 0
9349 63 1 7.9380996982045176 23.74614849659964 34.680117062274306 0 0 0
9031 59 1 8.840880299086281 19.897624909655672 35.58932461893325 0 0 0
8805 58 1 8.706040917118488 17.99499463006418 29.34188778855469 0 0 0
1799 11 1 4.806005764975413 19.971200867173415 19.314925628486364 0 0 0
9647 64 1 11.359715694873511 26.63728412937354 33.79336247018655 0 0 0
7869 52 1 5.383651948342422 6.844263415365181 32.12028966534702 0 0 0
7870 52 1 6.079467374809231 6.071481633494246 33.29082250711463 0 0 0
8807 58 1 10.478178678133286 17.604293616676127 31.396261765985408 0 0 0
9266 61 1 11.621904190779802 22.0288624258674 33.03752464868025 0 0 0
9259 61 1 5.942364122142607 21.654080063996656 26.108568637099474 0 0 0
9345 63 1 4.577124951639809 23.872163964554392 30.852199561964323 0 0 0
8021 54 1 1.8282717511098063 8.726305251035887 21.87864697532136 0 0 0
8248 55 1 5.020762793424777 11.325449662131117 32.31183979076251 0 0 0
3923 24 1 15.337789089018205 15.293607795970267 20.63966891522624 0 0 1
3919 24 1 12.155364191976913 15.229037090955455 16.865090324304443 0 0 1
8025 54 1 4.868969308952839 8.887074817654726 25.933349401914576 0 0 0
8026 54 1 5.907994208632836 8.021399885576349 26.688205770012708 0 0 0
8027 54 1 6.546879337693568 8.83903910289039 27.735053568994296 0 0 0