LAMMPS data file via write_data, version 23 Jun 2022, timestep = 11112117

8487 atoms
2 atom types
8471 bonds
3 bond types
8455 angles
3 angle types
8439 dihedrals
3 dihedral types

0 36.89775039 xlo xhi
0 26.67072 ylo yhi
38.631825797839696 198.11977860215427 zlo zhi
0 5.017838262698169 0 xy xz yz

Masses

1 14
2 15

Pair Coeffs # lj/cut/omp

1 0.0914 3.95
2 0.1947 3.75

Bond Coeffs # harmonic/omp

1 449.5 1.53
2 449.5 1.53
3 449.5 1.53

Angle Coeffs # harmonic/omp

1 62.0967 114
2 62.0967 114
3 62.0967 114

Dihedral Coeffs # opls/omp

1 1.411 -0.271 3.145 0
2 1.411 -0.271 3.145 0
3 1.411 -0.271 3.145 0

Atoms # molecular

1 2 1 15.945938417462669 1.05067609489409 49.73166910548754 0 0 0
2 2 1 16.601353238365682 0.11564650840587526 50.83625428041353 0 0 0
6569 52 1 13.257452085295212 3.256930835161219 51.650599393230735 0 0 0
1635 53 1 10.912882064621183 20.16969382385351 39.35654293330394 0 0 1
4079 6 1 17.300892414351807 23.278743001575872 41.964907970029664 0 0 0
3550 63 1 15.657985721148917 14.11511000186469 39.84088251985212 0 0 0
1904 18 1 14.910666801007475 25.24738653718019 44.028770430110036 0 0 0
858 12 1 18.390398425974652 12.413370608841317 47.055169771599175 0 0 0
1672 15 1 14.764813217425452 20.684243047976313 44.2819186914294 0 0 0
1078 12 1 14.78032395763509 12.479147800528184 43.49784468786745 0 0 0
7558 58 1 0.9934804437107901 14.304563750515843 43.82415604027075 1 0 0
1348 13 1 17.44055100465281 16.030961381696788 46.46898134041936 0 0 0
2885 24 1 17.395213258875632 10.263197379608366 41.4459263237269 0 0 0
226 22 1 13.908126104090465 2.4142607646119405 43.11290090466763 0 0 0
639 4 1 18.790206880303185 9.02502046117134 52.23542162804358 0 0 0
5207 42 1 2.921522107004257 11.081306187477603 49.89452924499114 1 0 0
455 4 1 17.902718518601755 5.479283845423274 51.55892933667801 0 0 0
1683 16 1 15.999353575247907 23.436091349692905 49.979689655385556 0 0 0
1596 13 1 9.095287648749098 18.91720476713933 42.21601065159704 0 0 0
7867 16 1 10.808951319254561 18.7730998309327 53.91228749565436 0 0 0
222 2 1 13.381536334511333 0.30069087125606664 46.80547747937449 0 0 0
223 2 1 14.173695890447728 1.1583886914422452 47.755684149865445 0 0 0
224 2 1 15.162224384196271 0.3649833450861829 48.58709192548032 0 0 0
7227 11 1 8.563372818661403 9.128272856909991 51.56279609826193 0 0 0
3549 63 1 15.098233366430216 13.404073121225698 38.7018104076818 0 0 0
227 22 1 14.930716012237175 3.3107615957757175 43.959901921277506 0 0 0
228 22 1 15.759895957733246 2.3928131668306962 44.801170155338134 0 0 0
229 22 1 16.631892541048007 3.167686540010989 45.705483467247035 0 0 0
8079 63 1 1.6717330375154962 21.086373060869107 38.91414761896306 1 0 0
4080 6 1 18.317702468609696 22.316660539201106 42.610352145262915 0 0 0
6329 50 1 6.863405758371751 0.35704662890980543 49.551800109452074 1 0 0
4906 38 1 3.7882792013506648 7.485692324681707 50.71701787012648 1 0 0
8458 50 1 6.912012127883949 25.631390647775756 44.972688585947346 0 0 0
7829 60 1 16.148956849907506 16.263065731426792 54.00298554674189 0 0 0
1383 13 1 18.839772616399703 17.994424658608775 52.42975430167574 0 0 0
8457 50 1 5.973576393508891 25.059913277133802 43.90808130527941 0 0 0
5514 45 1 4.916219951809414 16.622050607506747 52.81520107018685 1 0 0
5511 45 1 2.6379099893493536 15.712355708464596 49.873517689496154 1 0 0
1344 13 1 13.8095403677892 16.108310815783923 43.00878022452925 0 0 0
4984 56 1 0.9088004868071093 9.20279548866276 52.33758205753496 1 0 0
596 6 1 14.24735109120178 7.174020604913799 43.39624506767602 0 0 0
449 4 1 12.484701037688797 5.622736082732424 46.15061382630342 0 0 0
450 4 1 13.160091927770752 4.837981291027083 47.285788401551414 0 0 0
451 4 1 14.231914499571523 5.5449275997086485 48.136866566668104 0 0 0
452 4 1 15.189098773199609 4.711753866169106 49.05257537242739 0 0 0
453 4 1 16.08410721953686 5.585542005328035 49.86513216323677 0 0 0
1345 13 1 15.05008312795157 16.830083149730832 43.70045971006766 0 0 0
5210 42 1 5.1956919444509095 11.85149110208114 52.918908749647436 1 0 0
7812 60 1 1.5866742793340933 16.869679473969185 39.18546052117383 1 0 0
7352 3 1 14.294598990462605 11.524104239349104 52.79049562595305 0 0 0
7562 58 1 4.703339664503103 14.334775832036215 47.155436321805055 1 0 0
1595 13 1 8.36569915766816 17.997771814706223 41.23424289285599 0 0 0
2790 30 1 14.862654519002824 4.759287417080892 38.93847866349654 0 0 1
1340 13 1 10.433971649987862 15.6983022124416 39.25773416875356 0 0 0
7856 16 1 1.6175271647039418 18.175667098593163 43.98268021845907 1 0 0
7021 58 1 14.187898226934461 7.002192635239298 52.862155590022574 0 0 0
851 4 1 8.318723379550603 9.234192775909795 41.53854577343995 0 0 0
8301 49 1 4.395692098965138 23.4337717312486 46.973253773765215 1 0 0
7230 11 1 11.295511454462584 9.523324857337192 54.31695244437928 0 0 0
7016 58 1 10.240665387165482 7.693871918951116 48.02901622750316 0 0 0
516 4 1 8.85173715457241 5.737067314572262 42.540641104201924 0 0 0
517 4 1 9.572689948995496 4.839588300145685 43.43818806370187 0 0 0
518 4 1 10.511375179004641 5.673306368644819 44.34780853320848 0 0 0
519 4 1 11.669982533971098 4.874534863920222 45.07617249933681 0 0 0
594 6 1 12.437760638952106 7.2286453800233055 41.45478773258051 0 0 0
595 6 1 13.511730776708939 7.964089651660217 42.28529351140092 0 0 0
8302 49 1 5.275473092620588 22.51324053725354 47.73111303011291 1 0 0
447 22 1 11.132577236071613 3.452148709517799 40.56030746532179 0 0 0
8084 63 1 5.766846278044222 20.052231608372562 43.63029073423513 0 0 0
2792 19 1 16.395668635331496 4.894185382339323 41.021279763719996 0 0 0
8463 50 1 10.913387075416235 24.926033817605052 49.585331250261255 0 0 0
7857 16 1 2.5720955596738944 19.00835486921355 44.79678418224132 1 0 0
5959 48 1 1.858503561209527 20.991050314874762 49.04927522987858 1 0 0
7866 16 1 9.805911283043217 17.866670935571808 53.1801700591104 0 0 0
7344 3 1 7.530183911739942 11.10674032716785 45.56289853334308 0 0 0
7566 58 1 7.82486361158007 14.132940814857957 51.22032796737553 0 0 0
1593 14 1 6.268415154959069 18.103793503984733 39.940552693218486 0 0 1
600 6 1 17.98879492734831 6.730510003270601 46.83238694754984 0 0 0
599 6 1 17.232271510364985 7.637843802789779 45.840100278251725 0 0 0
6775 32 1 0.5800353340734927 5.362672232776694 43.3617312547956 1 0 0
1908 18 1 18.46621959451738 25.555534558448983 47.75051489744401 0 0 0
630 6 1 11.6006136014145 7.954239618746988 40.49287576043506 0 0 0
631 4 1 11.62896392696972 9.182711983035889 45.25063003531635 0 0 0
632 4 1 12.587960303329409 9.98645123014566 46.069622393362614 0 0 0
633 4 1 13.422623630574138 8.931932163600935 46.8966782082982 0 0 0
634 4 1 14.286218246620793 9.830435436646054 47.8151005137894 0 0 0
635 4 1 15.01727940256228 9.04544904260885 48.91464811584636 0 0 0
636 4 1 16.313648817259928 9.777387614261338 49.2485029557608 0 0 0
637 4 1 17.1116816775894 9.078850980650115 50.432238428485135 0 0 0
4903 38 1 0.7785308387153314 6.575913283217407 48.47074273944021 1 0 0
1346 13 1 15.639235727021008 16.01539889768456 44.8003473489429 0 0 0
6249 49 1 2.0614113835355 25.405240163869088 48.952220843442305 1 0 0
7019 58 1 12.234365295404686 6.939008243748214 51.292192011471776 0 0 0
7018 58 1 11.905371794535384 7.463289970181745 49.94739416388957 0 0 0
7559 58 1 2.0546824079180945 13.55655044402457 44.47855096996586 1 0 0
8300 49 1 3.637297541470398 22.699019397039002 45.83200102114562 1 0 0
7816 60 1 5.021077936723182 16.658965417304255 42.939844818093285 0 0 0
1302 12 1 6.7315883754265275 13.582975133372397 39.27257507691056 0 0 0
7819 60 1 7.448282619707573 15.83659809233259 45.45010162612213 0 0 0
1638 15 1 17.682949438918897 20.284942708359466 46.55357760875472 0 0 0
7861 16 1 5.657080770672929 18.7725049135683 48.46000313242146 0 0 0
1671 15 1 13.9785407703716 19.916338955884203 43.12822168551451 0 0 0
852 4 1 9.304379124341867 9.994658979490374 42.259792153969826 0 0 0
853 4 1 10.035633048793438 9.230843394931306 43.243618951627184 0 0 0
854 4 1 10.685242726394819 9.99683932846152 44.353829620751576 0 0 0
855 12 1 15.501335281982048 11.64491350083638 44.5236100405461 0 0 0
856 12 1 16.51900873359564 12.40754578633855 45.27383475807729 0 0 0
446 22 1 10.34325431757256 2.6862210487805616 39.42019283823857 0 0 0
216 1 1 8.099748125598111 0.6954172181444012 41.28691827107612 0 0 1
5737 46 1 2.0836877575548836 17.968022319023383 54.27090905737451 1 0 0
5962 48 1 4.245906588728905 20.19319541966624 51.80795288781193 1 0 0
454 4 1 16.873563200223746 4.658242313998098 50.737567520319104 0 0 0
214 1 1 6.635844890079452 0.6263213647669459 39.33425649269699 0 0 1
1347 13 1 16.522204602620164 16.865937522685304 45.666844896276736 0 0 0
6332 50 1 9.517138149252435 0.9545193124127902 52.13222630534045 0 0 0
7342 3 1 5.771958073321796 11.394904641795087 43.488622249906655 0 0 0
4078 6 1 16.668966522599273 22.651185133104878 40.69558727480811 0 0 0
2883 24 1 15.570803167488723 10.020458246706779 39.520750504345344 0 0 0
4612 38 1 2.722234144769142 2.4360612404159756 49.985824375905366 1 0 0
7229 11 1 10.422483106583428 8.719189434910577 53.41378026731117 0 0 0
7006 58 1 1.5712382878426103 6.841599534173841 39.12634681006308 0 0 0
1343 13 1 13.401286192490137 16.59904082115735 41.60148706250648 0 0 0
2884 24 1 16.665463147833176 9.467884192740394 40.377663144520135 0 0 0
1079 12 1 7.449458998478531 14.381285910560214 40.318183104828265 0 0 0
1080 12 1 8.248225193226952 13.459595647781976 41.265430081430054 0 0 0
1081 12 1 9.167624753259371 14.290559475247699 42.096013866284 0 0 0
1082 12 1 10.07631682277204 13.578664126914372 43.05873674101546 0 0 0
1083 12 1 10.880737950904473 14.502070713606324 44.001760562496074 0 0 0
1084 12 1 11.717268843883371 13.644013747688184 45.00883069316285 0 0 0
1085 12 1 12.54765746743911 14.612346807459563 45.949799205658714 0 0 0
1086 12 1 13.147203559824577 13.759671091179642 47.06956849669426 0 0 0
1087 12 1 14.29435049801362 14.469474960157541 47.78276147057084 0 0 0
1088 12 1 14.862993138698762 13.71681898455992 49.02160948202945 0 0 0
1089 12 1 16.13493647954321 14.314354422232043 49.89396277824057 0 0 0
7813 60 1 2.2617926591539175 16.08462615939412 40.32834321813934 0 0 0
7345 3 1 8.36183112554233 12.059505598096948 46.323806614198254 0 0 0
8087 63 1 8.51620758656609 21.012335094225005 46.25828043542433 0 0 0
8093 63 1 13.273771162008336 21.21846350731341 51.62453741301094 0 0 0
7222 11 1 4.5719875732464015 9.781798606460926 46.69006330391588 1 0 0
7565 58 1 7.072474804103831 13.27788210347721 50.15460066563314 0 0 0
7350 3 1 12.739183366709042 11.381133826949961 50.92160628903163 0 0 0
5208 42 1 3.546562562223432 11.729958461206392 51.071666939104375 1 0 0
8083 63 1 5.108309352740517 21.094276509725276 42.70557166288165 0 0 0
6253 49 1 5.428646747974945 25.503101105185518 52.856382737617174 1 0 0
8081 63 1 3.0702801608029984 21.20420801703612 41.048331344663474 0 0 0
2338 17 1 15.313405975317801 1.4291260521733977 39.88389041984648 0 0 1
4985 56 1 1.484024190474773 9.633356947855773 53.70413662826329 1 0 0
7815 60 1 3.944776079790352 15.819372727034997 42.17534272922908 0 0 0
1342 13 1 12.252548928666968 15.866916472301824 40.93539794826861 0 0 0
8303 49 1 5.785291665207289 23.222699004737894 48.94565127339271 1 0 0
7224 11 1 6.337789366306129 9.698519706535233 48.6411687239577 0 0 0
7219 11 1 1.4915967985095198 9.038228437396793 44.39208102439594 1 0 0
1077 12 1 14.059424740130833 11.653424274881653 42.46599763510663 0 0 0
6254 49 1 6.119403961492573 24.69115463841926 53.864046175006926 1 0 0
5479 54 1 0.4351699818454983 13.197292274556293 52.37979345639516 1 0 0
6323 50 1 1.8100350924118802 0.2810470937557936 44.03330810252919 1 0 0
7351 3 1 13.386761049241453 12.325701744238089 51.90131242270392 0 0 0
5960 48 1 2.823321748549179 20.105423192524988 49.81796507985653 1 0 0
7859 16 1 3.9015921769926827 18.65428078034983 46.63319459427529 1 0 0
5963 48 1 5.196209112647354 20.932425160168 52.775425286627716 1 0 0
3327 63 1 16.879806055555033 13.650239033610498 40.57042614820157 0 0 0
3634 18 1 17.355932233187055 18.948568786354674 41.74730487012311 0 0 0
8454 50 1 3.436243379997969 25.43749486347616 41.2704572942095 1 0 0
5206 42 1 1.7895959542215434 12.026720160747296 49.31569788278494 1 0 0
1377 13 1 13.318383954732182 18.01061033841547 47.066740680834066 0 0 0
1378 13 1 14.246721041866635 18.862459287199563 48.00860846027076 0 0 0
1379 13 1 15.280606130121173 17.966609189619295 48.865581227919556 0 0 0
1380 13 1 16.261474406348945 18.8556565304853 49.567500432812665 0 0 0
1381 13 1 17.211077342221213 18.152397094291118 50.57957864752585 0 0 0
1906 18 1 16.80703771770863 25.55704692725567 45.690642430087095 0 0 0
629 6 1 10.868675725424136 7.016850203302731 39.503606199256716 0 0 0
1684 16 1 16.756872870111767 22.45675781245503 50.82175179089287 0 0 0
6222 35 1 0.6683096127623693 23.27347278778761 53.233846413164855 1 0 0
1682 16 1 15.392675255203558 22.7523715750463 48.76363374522553 0 0 0
6252 49 1 4.517808903689649 24.806603462828324 51.946299067743865 1 0 0
7343 3 1 6.913661631091358 11.871135981557757 44.31469979070746 0 0 0
1090 12 1 16.837801122596577 13.193559638202341 50.63903040650926 0 0 0
7347 3 1 10.151261750207057 12.027816553105971 48.15445632521037 0 0 0
1639 15 1 18.27732835718472 21.261853401981327 47.66024944754278 0 0 0
515 4 1 7.985110154546723 4.937315036881465 41.655956985724444 0 0 0
231 22 1 18.25522819415939 2.992413076338812 47.792267186037115 0 0 0
6565 52 1 9.938135020452638 3.381642015792749 47.925555672441256 0 0 0
4611 38 1 1.8644350302837271 2.982628798669767 48.96248316904368 1 0 0
3633 18 1 16.52418706069216 18.216543231976413 40.671763873536584 0 0 0
1598 13 1 10.865802042451996 18.842226846321232 44.103594628927176 0 0 0
1599 13 1 11.466920305290664 18.09658421311207 45.20039032572287 0 0 0
1600 13 1 12.428100528869615 18.927889710956276 46.0875495150609 0 0 0
5211 42 1 6.35395750309201 10.984780643379674 53.65020697533873 1 0 0
1685 16 1 17.651616377807205 23.35196854854997 51.68363876321362 0 0 0
7349 3 1 11.760372301805901 12.185254649985744 50.04357339690519 0 0 0
3328 63 1 17.569495589239697 14.586878451753291 41.52831987719687 0 0 0
597 6 1 15.243393103396004 7.877472543381423 44.188145049863614 0 0 0
225 22 1 12.881154808343021 3.334068635099329 42.30179094332918 0 0 0
8456 50 1 5.04874957473921 25.785438059967984 42.95923255139856 0 0 0
7014 58 1 8.608650375789543 7.766796920209127 46.21426203586536 0 0 0
218 2 1 9.74100581657011 0.629075409984217 43.26196303592635 0 0 0
8452 50 1 1.6951540228471338 25.297354473777705 39.66958658633167 1 0 0
848 4 1 5.597545425731673 10.099358632644954 38.931097492743135 0 0 0
6328 50 1 5.960063441865532 1.0772018728511434 48.54200681150087 1 0 0
3329 63 1 18.41175920534763 13.821569373063676 42.51574260035717 0 0 0
4614 38 1 4.5161067594258695 2.505695070772097 51.5341875636925 0 0 0
5515 45 1 5.955540294835123 15.77199829280252 53.414502277033876 1 0 0
1076 12 1 12.732050032096515 12.123802693476497 41.988150653896916 0 0 0
1673 15 1 15.9152664105968 19.909266104689905 44.90840053819819 0 0 0
4077 6 1 15.610691263580286 23.493186146959527 39.97343075704015 0 0 0
1675 16 1 9.231790720597292 23.158152800153648 42.29795438748021 0 0 0
1676 16 1 9.990895217701395 22.352176400890418 43.3441803905484 0 0 0
1677 16 1 10.506551229710222 23.420719751767596 44.26312080046634 0 0 0
1678 16 1 11.613484836589343 22.691910800004898 45.03724478702239 0 0 0
1679 16 1 12.329369890596972 23.441936163752768 46.19475266342187 0 0 0
1680 16 1 13.570041341689496 22.69527325266511 46.86079898945441 0 0 0
1681 16 1 14.293216943779818 23.40433304555984 47.95858053382095 0 0 0
7569 58 1 10.496332981124006 13.92368256110618 53.7142616097757 0 0 0
6325 50 1 3.390512316249523 0.02406483059304993 46.11024928405295 1 0 0
1074 12 1 11.318082474746872 11.974865000561426 40.062077906977215 0 0 0
1674 15 1 16.467358397923125 20.861568419049235 45.90663446438215 0 0 0
7341 3 1 5.290085202658413 12.255530007635784 42.31909991655162 0 0 0
7818 60 1 6.857762362466273 16.549114986464335 44.33262063730883 0 0 0
6784 32 1 8.664618953128029 4.800068024824872 51.68832177931546 0 0 0
1903 18 1 14.090346152349808 24.376207201196287 43.085428857957865 0 0 0
7824 60 1 11.461436925994182 15.833468173857945 49.949290313930604 0 0 0
7864 16 1 8.0426649647115 18.01064060719518 51.28978996858288 0 0 0
6566 52 1 10.834870880796284 2.5338143082387234 48.761460883174664 0 0 0
4076 6 1 14.958487580566214 22.526904133708594 39.006427863156446 0 0 0
3 2 1 17.97014946041134 0.6286712730410557 51.23291886012064 0 0 0
1896 16 1 6.570573614597066 22.15838524458584 39.754853112881186 0 0 0
1897 16 1 7.481063063883884 23.021600735820364 40.549918230891876 0 0 0
1898 16 1 8.550100985419165 22.334223868454973 41.34385860197719 0 0 0
7353 3 1 15.415079514886678 12.084290059790666 53.64468190775942 0 0 0
4909 38 1 6.116748276434691 6.933435329847364 53.70058098324518 1 0 0
1901 18 1 12.309076188367964 24.598380942676922 41.120081862041204 0 0 0
1902 18 1 13.231931076281342 25.185100023947232 42.11418630964302 0 0 0
8465 50 1 12.644946697830088 25.09379052474029 51.39550456862248 0 0 0
8309 49 1 11.118456479280708 23.15085363387465 54.09721301306659 0 0 0
5205 42 1 1.098986210380708 11.218388227496003 48.20172169231409 1 0 0
6326 50 1 4.208202568713308 0.8877526678461755 46.95209445024888 1 0 0
7827 60 1 14.493334236996507 16.682432627310565 52.0584661530049 0 0 0
5736 46 1 1.1643166331825834 18.657955691149148 53.34633014836476 1 0 0
3631 18 1 14.802322107255408 18.187365505359335 38.83394419456586 0 0 0
7220 11 1 2.8271269443020866 9.583124209136253 44.86324648371131 1 0 0
1075 12 1 12.387481167372314 11.277769472556075 40.836673848737604 0 0 0
7814 60 1 3.278852827980892 16.740438818250773 41.16570496951308 0 0 0
4610 38 1 0.6108934407864528 2.35916610916019 48.47123881442411 1 0 0
1670 15 1 13.363181726260342 20.928955807535928 42.143703988278624 0 0 0
220 2 1 11.519150684357866 0.5771880584942538 44.8974098226079 0 0 0
4698 37 1 1.0386144991199373 5.174511860571671 53.24080776418752 0 0 0
4616 38 1 6.221834243446219 2.51066195718771 53.56103112962616 0 0 0
7348 3 1 11.042677976735936 11.300315020620133 49.09041823175958 0 0 0
8085 63 1 6.833619691706218 20.8879947925397 44.30320008542267 0 0 0
7218 11 1 0.8633174634325489 9.795742792640104 43.24327124487744 1 0 0
8094 63 1 14.354070040865038 20.18450755617914 51.977565488474 0 0 0
7012 58 1 6.850002651657923 7.7899601910249325 44.35081192958863 0 0 0
8089 63 1 9.674781113919039 20.657988776751058 48.492512667355875 0 0 0
7823 60 1 10.054500483657472 16.281127527755682 49.43952066064832 0 0 0
221 2 1 12.26572367185599 1.0504543774139665 46.13384994990982 0 0 0
7223 11 1 5.253922247507713 9.04827018532113 47.83891669956134 0 0 0
1301 12 1 5.523920077920538 14.428996904412772 38.88241323529873 0 0 0
8306 49 1 8.65248026600854 22.501596052042274 51.25030507051969 0 0 0
7828 60 1 14.73386048839893 16.046841720725 53.3982084895148 0 0 0
219 2 1 10.225926875870229 1.1539027845876964 44.612148476303716 0 0 0
6322 50 1 0.5806205717609803 0.9781276355906134 43.58608078850236 1 0 0
4615 38 1 5.360422171232265 3.3277517405484995 52.506386911381504 0 0 0
5958 48 1 1.1607300680892365 20.246089973169166 47.91011504668859 1 0 0
6333 50 1 10.023273246548646 26.652303553693507 53.179010443152976 0 -1 0
6570 52 1 14.197372002144164 2.4310499632431126 52.40805122371583 0 0 0
514 4 1 7.36014468755944 5.657853116696626 40.56284945315322 0 0 0
7563 58 1 5.456224716092936 13.387183038622625 48.11607933220906 0 0 0
7570 58 1 11.782162291180192 14.56111939405748 54.425786199112984 0 0 0
1686 16 1 18.444434261984526 22.56549383375073 52.6745441924788 0 0 0
7560 58 1 3.115065489511523 14.358645897078611 45.24539362671291 1 0 0
6324 50 1 2.518214660083949 0.9104704429304454 45.28129273807615 1 0 0
7340 3 1 4.091846601333812 11.58630082180469 41.77116699562795 0 0 0
8297 49 1 0.6265831663288013 23.128341288341613 43.39381214727609 1 0 0
7822 60 1 9.998551929652905 15.553952683501883 48.1244341765251 0 0 0
6223 35 1 1.8605720801791528 22.56766549049591 53.99190870883711 1 0 0
6568 52 1 12.457479302154798 2.481581595680431 50.56466865955343 0 0 0
2339 17 1 16.102873586863954 0.4563098245986952 40.8024906544514 0 0 1
7009 58 1 3.7017153388733792 7.416032187436407 42.323356822651604 0 0 0
1382 13 1 18.061474373785995 18.999839559578962 51.54024251972992 0 0 0
513 4 1 6.553337885079559 4.811965872505031 39.66776010454602 0 0 0
849 4 1 6.52275393590224 9.161058339900498 39.79494043231283 0 0 0
6330 50 1 7.910105480172848 1.1060924158799361 50.24952553829992 1 0 0
6786 32 1 10.319756790162762 4.631961031088682 53.4144614840692 0 0 0
4 2 1 18.40736176047842 0.20695858848068627 52.60269578315194 0 0 0
217 1 1 8.459975641302586 1.221404823020183 42.70155141564392 0 0 1
8305 49 1 7.5305024754293655 23.24947155092282 50.67893663029622 0 0 0
6248 49 1 0.9274872728366257 24.646822469663267 48.35239297962857 1 0 0
8453 50 1 2.5418806489277896 24.472159654600137 40.52392485953849 1 0 0
5964 48 1 6.099511585403783 20.06995624536319 53.59689745006593 1 0 0
7225 11 1 7.005051741668175 8.910286272483406 49.78598103436372 0 0 0
4905 38 1 2.5474880796863437 6.648673167787003 50.28646526078278 1 0 0
8462 50 1 10.33122391175321 25.396696105761627 48.208520075686664 0 0 0
1905 18 1 15.759923895915954 24.558866085548747 45.088289017327305 0 0 0
7858 16 1 3.3240723574495186 17.84375276510915 45.54658033022546 1 0 0
5510 45 1 1.585943907964058 16.624867981338394 49.28668586770277 1 0 0
7825 60 1 12.256859252469338 16.903458473390394 50.7496851378046 0 0 0
5480 54 1 1.3369854135911161 14.007129307473335 53.27075626227314 1 0 0
4907 38 1 4.496367142522009 6.87201511085371 51.85904244619758 1 0 0
1899 18 1 10.572919340766937 24.98519086473378 39.282408475550895 0 0 0
8091 63 1 11.38893258666723 20.3694441021513 50.29841882181077 0 0 0
8304 49 1 6.823056355135476 22.414684140501432 49.6844665676391 0 0 0
1341 13 1 11.414932286344182 16.639354804007695 39.87538687156052 0 0 0
7826 60 1 13.385487083709833 16.09924017544781 51.1718915878535 0 0 0
6331 50 1 8.23515452034904 0.33740514322413806 51.50605411716895 1 0 0
8466 50 1 13.975220485580149 25.414741743478466 51.88505112499457 0 0 0
6776 32 1 1.3912299562251547 4.595387948072023 44.40394683054353 1 0 0
7015 58 1 9.065889217754982 6.927629159469309 47.40229454723068 0 0 0
4904 38 1 1.9283312074219463 7.349026734092831 49.132814003023206 1 0 0
7013 58 1 7.3836700698285735 7.142619505161933 45.624517600441635 0 0 0
850 4 1 7.530315139440242 10.00808476234254 40.55534562555495 0 0 0
2793 19 1 17.18831420009776 5.842311707084364 41.86827307929664 0 0 0
1637 53 1 12.17061606885377 20.333940417354228 41.399317225077084 0 0 1
7008 58 1 3.1507817093042902 7.6938421237221535 40.91734788681777 0 0 0
7011 58 1 5.496380713422274 7.344732523470444 43.889002184146705 0 0 0
8307 49 1 9.250854383031553 23.205428245744198 52.44705430500254 0 0 0
1907 18 1 17.55001774483237 24.80249466521252 46.785723497672805 0 0 0
5965 48 1 6.903211210153358 21.048686439680438 54.42975769901056 0 0 0
8298 49 1 1.7754321699587088 22.368337492922212 44.10941696947833 1 0 0
6777 32 1 2.4048303332275807 5.51263626324003 44.98467348990999 1 0 0
2340 17 1 17.017488161732135 1.1364774984936512 41.83318520523494 0 0 1
5512 45 1 3.1270191566836396 16.545082317768752 50.997264260056824 1 0 0
1091 12 1 17.69458907122333 14.004230973564312 51.48482595478848 0 0 0
4386 35 1 1.2583794527309347 1.1447772653065336 53.12608497112801 1 0 0
7007 58 1 2.4476933717124187 6.569584801416202 40.33528395099873 0 0 0
215 1 1 6.724825702241561 1.0571511206987878 40.75229708471809 0 0 1
448 22 1 12.23048384776083 2.648560590097914 41.209472693736686 0 0 0
5961 48 1 3.5252384364923293 21.032877077971474 50.80038880711218 1 0 0
1597 13 1 10.068475474191757 18.017902337346772 43.082609511040275 0 0 0
7022 58 1 15.442128139466485 7.6263004433163255 53.358254350241246 0 0 0
7226 11 1 7.892273661857088 9.89328104188758 50.4647157277229 0 0 0
7221 11 1 3.21057761992195 9.312947352719945 46.287624041875496 1 0 0
7817 60 1 6.078120338077749 15.79213553432809 43.47503756398887 0 0 0
6555 52 1 1.4695578429476561 3.03832879288547 38.93394326287351 0 0 0
4387 35 1 2.1862111698042885 0.33554493340292973 54.00426634812123 1 0 0
8467 50 1 14.19078207151131 24.76711188418634 53.275850507028515 0 0 0
6779 32 1 4.287392149990889 5.466935953315305 46.80355422899748 1 0 0
7338 3 1 2.046132571987307 11.732635116057246 40.213613218872226 0 0 0
7860 16 1 5.007244588170003 18.000457701524706 47.3422266169504 1 0 0
8086 63 1 7.622110663054169 20.27749171631463 45.346722704825595 0 0 0
8090 63 1 10.950208028972249 19.918609966369726 48.883039153258935 0 0 0
7020 58 1 13.43844960229604 7.7947221997374925 51.85476908560791 0 0 0
6334 50 1 10.987973179272364 0.7442307246766549 54.004230021357515 0 0 0
7863 16 1 7.236985040356016 18.87276921257408 50.4284369253225 0 0 0
7862 16 1 6.626775358329755 17.98626874406385 49.453297050995275 0 0 0
4986 56 1 2.738439717129882 8.984791584539286 54.300970515789274 1 0 0
6327 50 1 5.1931008240708145 0.10426047075110838 47.61459002930911 1 0 0
7567 58 1 8.997679614257295 13.601087376152185 51.870810876156355 0 0 0
7821 60 1 8.777317638419582 15.58540307363532 47.12092371292395 0 0 0
8088 63 1 8.96658290101905 19.971384076516557 47.235373692781735 0 0 0
8468 50 1 15.487794437200732 25.37819396275551 53.81273146346821 0 0 0
7017 58 1 10.681964237240013 6.909884240818533 49.26794957123463 0 0 0
3632 18 1 15.851902828928546 18.961943274234045 39.53059070135768 0 0 0
6564 52 1 8.904182964037343 2.555782863177232 47.14372884566835 0 0 0
8299 49 1 2.4571304375143135 23.28544602690945 45.13471552889408 1 0 0
8461 50 1 9.24006126681327 24.53195525958091 47.795769499635824 0 0 0
6778 32 1 3.2035730938685805 4.696454123326445 46.025771311945675 1 0 0
7568 58 1 9.541773084859948 14.702174004339033 52.76302145023187 0 0 0
7564 58 1 5.953020353975632 14.07090900937834 49.40464668804672 0 0 0
8455 50 1 4.203556519889699 24.63988755967644 42.32511469717651 0 0 0
8460 50 1 8.446159500835261 25.327546981682282 46.829248777426706 0 0 0
8096 63 1 15.972126480437927 19.705007421677383 53.96806247591368 0 0 0
8082 63 1 4.03847677791933 20.349224135645905 41.977635055796576 0 0 0
1636 53 1 11.55077789804965 21.23530879680775 40.37645592158764 0 0 1
2791 30 1 15.287787757110166 5.616377716475224 40.21244059228085 0 0 1
598 6 1 16.011694881660432 6.972586641451217 45.04328456214954 0 0 0
6567 52 1 11.446489164649092 3.3245415729619134 49.866753808398194 0 0 0
857 12 1 17.48154802371204 11.57292801624157 46.153529785739714 0 0 0
1900 18 1 11.565325375390007 25.664227641238902 40.22518668519074 0 0 0
8464 50 1 12.268930159613324 25.501175715330056 49.99512576296407 0 0 0
6572 52 1 16.108736421338527 2.624447017927523 53.96615080320629 0 0 0
7820 60 1 8.484552661640066 16.616752570768266 46.15860816082048 0 0 0
8092 63 1 12.664546914955583 21.257193789835544 50.24652725240594 0 0 0
1073 9 1 10.467571120709279 11.11977476137886 39.22483918137342 0 0 1
7010 58 1 5.025762133110686 8.042950639940676 42.59962990396382 0 0 0
8095 63 1 14.941055610331068 20.633669112783597 53.35740315962512 0 0 0
4613 38 1 3.754106407828305 3.247349936910344 50.535351345889545 0 0 0
1594 13 1 7.534173010951705 18.828046464777305 40.340795083376584 0 0 0
6250 49 1 2.6861568448487336 24.79087315670938 50.27003057003722 1 0 0
6557 52 1 3.335653963179288 3.2021956814114554 40.59753634359841 0 0 0
6558 52 1 3.681471561303927 2.6620824841325637 41.954200560102755 0 0 0
6559 52 1 4.735511328436008 3.475634829143465 42.69082363052811 0 0 0
6560 52 1 5.2734540887467345 2.6057670348930495 43.73774280793914 0 0 0
6561 52 1 6.1535484509641725 3.334330057286713 44.74990766606072 0 0 0
6562 52 1 6.9439625061865815 2.4773251641707215 45.66310238451338 0 0 0
2886 24 1 18.385768798964396 9.41884611562204 42.25825276748936 0 0 0
6785 32 1 9.652696751778729 5.593378050260617 52.38129469057265 0 0 0
8080 63 1 2.240458012755465 20.339555381641567 40.12188485296099 1 0 0
7561 58 1 3.788149279402096 13.49340828003801 46.32179667942535 1 0 0
7346 3 1 9.07790633848517 11.227950217367596 47.29819589127412 0 0 0
5513 45 1 4.264489734909868 15.822617523787015 51.64668841038632 1 0 0
6556 52 1 2.3077139873785373 2.1842318290474627 39.89809664164813 0 0 0
7228 11 1 9.476978398806516 9.709621030130092 52.71478120568884 0 0 0
6780 32 1 5.229560487269509 4.753927916625338 47.75402839908589 0 0 0
6781 32 1 6.141133006592081 5.682791506701963 48.54725685566764 0 0 0
6782 32 1 7.089754177642064 4.8808034651354015 49.51200642825728 0 0 0
6783 32 1 8.019413156774615 5.565876566221488 50.52743936106869 0 0 0
5209 42 1 4.7513137806636765 11.074220696599285 51.753116606106666 1 0 0
456 4 1 18.8132101159631 4.595568728309201 52.4737542570421 0 0 0
7337 3 1 1.2834758909966928 12.340993334779661 39.01071903525102 0 0 0
230 22 1 17.639074252312593 2.356704955723283 46.45992156519375 0 0 0
7339 3 1 3.371668371127392 12.322359887468334 40.74142870538411 0 0 0
8308 49 1 10.210493243741876 22.345795403346965 53.13401327207302 0 0 0
4908 38 1 5.579706555626974 7.763886689577725 52.53607261892427 1 0 0
7865 16 1 9.06423500664459 18.710439482700714 52.15864433466351 0 0 0
8459 50 1 7.395508168205996 24.599514825823906 46.01394604078407 0 0 0
6251 49 1 3.81936888877148 25.59724763241609 50.988982395547715 1 0 0
6563 52 1 8.026871154756678 3.3779329550199555 46.28447698246156 0 0 0
2794 19 1 17.986058335660434 4.8669266279945065 42.68991845688528 0 0 0
6787 32 1 11.358632478656295 5.410405272443612 54.282034931879444 0 0 0
5481 54 1 2.2212366214801715 13.234276931124768 54.28878841247756 1 0 0
638 4 1 18.057107756450776 9.899504687840404 51.35627085489048 0 0 0
2341 17 1 17.991308967738068 0.1077415571967879 42.53043013327437 0 0 1
6571 52 1 14.873178139539878 3.0982633296880087 53.535220707781846 0 0 0
1092 12 1 18.545584104931766 13.236096148274951 52.54756919741623 0 0 0