LAMMPS data file via write_data, version 23 Jun 2022, timestep = 11112117

8487 atoms
2 atom types
8471 bonds
3 bond types
8455 angles
3 angle types
8439 dihedrals
3 dihedral types

0 36.89775039 xlo xhi
0 26.67072 ylo yhi
45.30260278464007 191.44900161535617 zlo zhi
0 4.598083924921581 0 xy xz yz

Masses

1 14
2 15

Pair Coeffs # lj/cut/omp

1 0.0914 3.95
2 0.1947 3.75

Bond Coeffs # harmonic/omp

1 449.5 1.53
2 449.5 1.53
3 449.5 1.53

Angle Coeffs # harmonic/omp

1 62.0967 114
2 62.0967 114
3 62.0967 114

Dihedral Coeffs # opls/omp

1 1.411 -0.271 3.145 0
2 1.411 -0.271 3.145 0
3 1.411 -0.271 3.145 0

Atoms # molecular

7293 59 1 1.0733721786486043 12.596415648950165 58.77271592615506 0 0 0
545 50 1 8.67245136884176 6.7362441870110015 52.617607420090586 1 0 1
2417 64 1 14.39754304011785 4.546305173352661 47.30738730877964 1 0 1
2986 29 1 17.744386471728443 15.432552629333564 52.34492876961062 0 0 0
4 19 1 4.488050276834699 0.39287710834836953 52.300023166942424 0 0 0
2663 27 1 9.433200816139168 8.426350326613132 46.42445197450239 0 0 0
1938 38 1 14.904962709293494 0.7356633389253547 48.43881075317143 0 0 0
2421 64 1 16.93268128142172 6.203578527612267 50.606839143759885 0 0 1
2880 44 1 13.906983602404578 9.509215204443942 45.989521701390956 0 0 1
1783 21 1 9.43881380243562 23.526764126489727 50.7301969540159 1 0 1
303 7 1 0.6310726117327926 5.059737989255656 47.36332188758559 0 0 0
2954 28 1 13.17533092240482 12.7382988038657 52.23274441692452 1 0 1
1785 21 1 10.72894275071507 23.762058892902846 53.06568240301434 0 0 1
3432 33 1 11.210199438724322 22.02716254083127 46.875736440057125 0 0 1
2947 28 1 9.676579388416679 13.6207790257777 47.03242888535913 1 0 1
1676 18 1 11.291524710707584 20.54115799833586 55.09067704284235 0 0 0
7531 34 1 1.5228268718870188 16.459987846674714 53.906681604436585 0 0 0
1133 11 1 9.903691450089198 13.452913221413581 59.466145731757294 1 0 1
2945 28 1 7.821878138172439 15.364241530116763 46.272482941561876 1 0 1
1900 14 1 10.629382433815213 25.681707638390638 48.07734381891276 1 -1 1
1062 12 1 10.83040572702527 10.470849686711267 52.72615994533001 0 0 1
820 8 1 0.668562299440251 11.28819867439493 48.09403217886166 1 0 1
3439 43 1 13.948529358265656 22.49534799907775 53.50681844111868 0 0 0
315 7 1 8.414866805805918 4.915070292414348 55.916226212351745 0 0 0
2144 56 1 9.65382903582648 4.317687593083332 45.78721781405931 0 0 0
2156 56 1 17.405543443541784 3.873748987746522 55.38710923633085 0 0 0
835 8 1 10.007174819747492 9.861665348575366 59.566278233044585 0 0 1
1669 17 1 6.012526821144359 20.41916868214728 48.36750697434588 0 0 1
1908 14 1 15.686720282734793 0.2153122391831447 54.37214425541411 0 0 1
2951 28 1 12.75716904818836 12.322159531437777 48.77408051323525 1 0 1
2146 56 1 10.943920440850718 2.9869897714178864 47.43819096459431 0 0 0
3149 32 1 13.308288564976603 18.894602928215352 45.43451664562983 0 0 0
99 4 1 3.5265163013985514 2.300295273763126 47.49186663571483 0 0 0
3150 32 1 14.261677889351523 19.441373853705418 46.2764987409474 0 0 0
1059 12 1 7.224579734763614 10.588516485842012 51.22624345106813 0 0 1
7827 60 1 6.260033154097803 20.172979523802294 58.7468076852341 0 0 0
3066 31 1 7.902178162156159 19.1836268188304 46.25291734489255 0 0 0
2980 29 1 16.171529799616106 13.54200922027261 46.63751570716549 0 0 0
7537 34 1 6.00462272524616 15.865905053742921 58.047606129383745 0 0 0
3083 31 1 18.227882562727206 18.99660809249017 58.246239186977476 0 0 0
1686 19 1 9.519693048123516 22.611775850155247 58.99374248777822 0 0 0
1899 14 1 9.782685213742035 25.769745670677263 46.911597073532796 1 -1 1
1237 16 1 4.681742120398319 18.880392476368005 52.298759752516276 0 0 0
1061 12 1 9.809428046563912 10.874419760194122 51.62394504404724 0 0 1
8483 61 1 5.07446537073213 22.95088934134415 57.79315708145808 1 0 1
542 50 1 7.086346330217998 7.1557508473877265 49.55547062561848 1 0 1
2147 56 1 11.539376424801869 2.8710136048633292 48.82432643470321 0 0 0
2949 28 1 10.389943507083872 12.660507250509184 49.20303555102075 1 0 1
7050 54 1 5.925989277688047 11.209053494962658 58.64627850826372 0 0 0
6527 54 1 0.871248690421905 6.0193583764649725 58.04628293943606 0 0 0
6318 63 1 0.5952327523750995 2.278226013170694 54.02476564633898 0 0 0
1941 38 1 16.61904071662113 0.7362782660972441 50.3502324498823 0 0 0
2884 44 1 16.41833908827665 9.932900625364281 49.955711200492544 0 0 1
1675 18 1 10.531441000985463 20.51400881854338 53.665915135255005 0 0 0
1456 18 1 13.322143279617556 21.131915913586976 58.22089928337302 0 0 0
2982 29 1 15.875442511949307 14.52862678776504 48.860451707764454 0 0 0
1777 21 1 5.348491958278043 24.66102983906867 46.415650359965895 1 0 1
2419 64 1 15.777457902373168 5.741568885197339 48.25974989910594 0 0 1
1904 14 1 12.847105833010955 26.01356527333649 51.054274999124004 0 -1 1
1052 12 1 3.107880849947152 13.63646815846502 45.55642492820834 1 0 1
1898 14 1 9.903951148005158 0.4155067161028067 46.28328343048617 1 0 1
7048 54 1 4.525584415368238 12.195264236645803 57.01444971345921 0 0 0
2886 44 1 17.74305364864663 11.215243316761402 51.772975413075024 0 0 1
1124 11 1 5.120054027216568 13.433970062714168 51.296185599525906 1 0 1
97 4 1 3.3850177513388098 4.028796536286863 46.17264720253058 0 0 0
3434 33 1 11.205327100799177 20.97055360121764 49.408905036698215 0 0 1
1677 18 1 11.987526089728973 19.20391511732895 55.42501473327164 0 0 0
6826 56 1 0.6317039301964004 9.077022978415306 59.08289929019418 0 0 0
2948 28 1 9.177659386390905 12.903951090026064 48.326813081897775 1 0 1
2961 28 1 18.456900087981385 14.52647055718138 57.6461045768319 0 0 1
2445 27 1 13.229280846024611 8.576837163368904 51.744159488953414 0 0 0
4319 40 1 18.289898469776148 2.165989487833418 45.33370073108418 0 0 1
3070 31 1 11.019459227676757 16.236900571981614 48.039016114944204 0 0 0
1056 12 1 6.187467444795598 11.973447968597917 48.19052099877343 0 0 1
6784 23 1 1.6804161563621198 7.253836121663453 54.010695178569506 0 0 0
6321 63 1 3.039716887219766 1.2602066563434569 55.997673538607486 0 0 0
3433 33 1 10.534528244750984 21.536867783128052 48.17801361155121 0 0 1
2155 56 1 16.22392423235652 4.73634130138359 55.22682810753981 0 0 0
8479 61 1 2.7273233961545835 24.729619431800245 54.24045938583291 1 0 1
311 7 1 5.941484680737937 3.8407142457092593 53.40511249338877 0 0 0
1213 13 1 9.807245715352147 15.075531987643096 52.34280110994659 0 0 0
543 50 1 8.057809356268688 6.099544616409752 50.20896857232843 1 0 1
3073 31 1 13.018023545262398 15.935824257813364 51.0058319055848 0 0 0
821 8 1 0.3335958999530693 10.686118752091048 49.469671709460535 1 0 1
3078 31 1 15.23603654642001 18.70829022576592 53.58420849046735 0 0 0
1907 14 1 15.07722740715502 25.502404798652954 54.05476761160535 0 -1 1
1458 18 1 14.955989025904255 19.799023180101948 59.8518009870114 0 0 0
98 4 1 2.916390926862576 2.560967897317859 46.15150325913986 0 0 0
1060 12 1 8.43952484000051 10.249003418562172 51.95695743532963 0 0 1
7 19 1 6.451218595870565 25.42901077789601 54.037694124098834 0 -1 0
5750 4 1 14.237648895228523 2.8405314402771715 57.98408232691574 0 0 0
1784 21 1 9.671598028413023 24.135430633227912 52.085128293324956 0 0 1
301 7 1 0.005954976226882479 6.348366378898334 45.45818207208371 0 0 0
834 8 1 9.090923303610008 9.845371218457949 58.270260316317305 0 0 1
1666 17 1 5.0663914893977315 20.93194440668583 45.51181949473812 0 0 1
831 8 1 7.745749068926134 9.210131541573832 56.33581603151601 1 0 1
544 50 1 8.180596824899993 5.586465166149167 51.625254914455496 1 0 1
2979 29 1 14.90342134969561 14.16116578737093 47.05760748167091 0 0 0
2158 56 1 17.706589868235902 5.136425887784375 57.572754001672465 0 0 0
1064 10 1 11.583047849659186 10.122071198282715 54.91812037782979 0 0 0
2952 28 1 12.726669807050952 11.551234160779934 50.116437539478184 1 0 1
2157 56 1 17.720217239180894 3.833945644445888 56.853457305684294 0 0 0
549 50 1 11.78137342931132 5.321347030301856 55.049764913169106 1 0 1
7823 60 1 3.132923857993555 20.075605481940837 56.833456293194715 1 0 0
2960 28 1 17.82944305442351 13.883074632129262 56.509655526928825 0 0 1
6791 23 1 7.0552839451847 6.505323023189781 59.26186216033878 0 0 0
2881 44 1 15.035957599093871 9.709951113057514 46.84091671645572 0 0 1
2418 64 1 15.040991995263443 4.585645919027192 48.668945595096396 0 0 1
1902 14 1 12.320888552812 24.251010844513253 49.385335423069435 0 -1 1
2148 56 1 11.75030619264234 4.248062787976893 49.648732746430376 0 0 0
2882 44 1 15.386185371686844 8.987189231199997 48.131040704182 0 0 1
7821 3 1 2.7498022710912062 20.20491850982726 54.49959108960597 1 0 1
1066 10 1 12.620806942619598 10.940764095818384 57.05655894525807 0 0 0
3067 31 1 8.846939096715044 18.354769031066866 47.18908979478961 0 0 0
3220 43 1 17.99526369311981 22.72825125179903 57.11693759587387 0 0 0
2446 27 1 13.750714025775867 8.035785679408546 53.05013931905218 0 0 0
1672 17 1 8.584717884832674 19.92550700280811 51.195311450686646 0 0 1
1906 14 1 14.493587389805416 25.692588094203074 52.67560665798264 0 -1 1
1058 12 1 7.777630739755121 10.342470984749358 49.82559541467565 0 0 1
1120 11 1 1.7182414672910722 14.302093676736563 49.723548753866 1 0 1
1679 19 1 5.98843159935691 21.91990235132639 53.610955390931565 0 0 0
7046 54 1 2.935656856127501 10.54084971995103 55.335661701512166 0 0 0
3449 35 1 18.294828755935306 23.639852918444248 49.9141743589197 0 0 0
844 10 1 13.959038968546357 12.026605207953358 58.914327804401324 0 0 0
1206 13 1 4.989658710484426 17.3157425038304 46.662727350888765 0 0 0
8478 61 1 1.5092906556456482 25.234191135828663 53.39904193193496 1 0 1
2442 27 1 11.857227922243347 8.40364425392145 49.1755155602035 0 0 0
1779 21 1 6.160945582607352 25.42249949575092 48.57120980521652 1 0 1
1234 16 1 1.7035441049873925 19.53601092416218 50.37133939110235 0 0 0
6319 63 1 1.8816201575726392 2.9140699611192082 54.408953187442165 0 0 0
5946 4 1 11.113121730729656 1.0400963216329009 54.84941614685441 0 0 0
3082 31 1 17.155914905479563 18.614905620542924 57.1953925999418 0 0 0
1243 16 1 8.669392737324957 18.212046836502633 56.703002508439766 0 0 0
1709 19 1 1.5578713676624283 22.899524583431088 46.980573800939304 0 0 0
3436 33 1 13.648292397502091 20.490498071593137 50.225801025890306 0 0 1
1778 21 1 5.396400495251401 25.88696324984628 47.29550991196716 1 0 1
3218 43 1 15.643618544098976 22.084878734627637 56.11389753592247 0 0 0
3079 31 1 15.656652765943806 18.96310197320665 55.11106286632718 0 0 0
3156 32 1 17.83659892087878 20.264647960749087 51.48747333361448 -1 0 0
2984 29 1 17.74913626709625 14.476481805276201 50.1724907318989 0 0 0
2664 27 1 10.234190733543354 9.029424545230242 47.51228851376474 0 0 0
2958 28 1 15.648026516422094 13.063383285168488 55.76013860893064 1 0 1
3437 43 1 14.159632430787685 21.608508903174513 51.22815473804734 0 0 0
1207 13 1 4.749109107086854 15.968178837384126 47.29845873096893 0 0 0
7043 54 1 0.8733759545010547 12.781589456049632 53.85935456633477 0 0 0
3069 31 1 11.26377273406798 17.696121855779996 47.86349585680469 0 0 0
538 50 1 4.529790822843332 8.25996721398416 46.671954889137965 1 0 1
7819 3 1 0.8731551770027668 21.802409428201127 53.719341011182834 1 0 1
2978 29 1 13.749953619825966 14.496417318071348 46.06878518447416 0 0 0
1910 14 1 16.85111557483213 25.845356974602886 56.15475345415604 0 -1 1
6790 23 1 5.858604361005353 6.121631180340913 58.445981504176714 0 0 0
36 19 1 0.7886484431514478 0.007639861433581371 47.96256477358276 0 0 0
1671 17 1 7.814891861273885 19.404572478732444 50.15422101881025 0 0 1
2983 29 1 16.255012978650768 14.369744211826962 50.290933185682675 0 0 0
826 8 1 4.232367635193902 9.174187369867536 52.59917090806417 1 0 1
1232 16 1 2.098737497640267 18.81592262951658 48.10238925327017 0 0 0
102 4 1 6.947832391357819 3.2840021152939736 48.88924102258856 0 0 0
1901 14 1 11.98832025019193 24.93368258871844 48.00247609648545 1 -1 1
2447 27 1 15.217303284061186 8.232196265575283 52.94165655502118 0 0 0
6787 23 1 4.018734073971298 6.016334720470452 56.62355067407588 0 0 0
1119 11 1 0.47816611780410007 14.806031530836782 48.99573331622203 1 0 1
1214 13 1 10.335207791010232 13.892874418871678 53.06073798427428 0 0 0
2449 27 1 16.240888909147557 9.646044775292973 54.6206151950018 0 0 0
546 50 1 10.15506886407918 7.062023026503979 52.334245819542566 1 0 1
8 19 1 6.535677882605773 25.80639500521328 55.511323214776965 0 -1 0
819 8 1 1.0077656576314353 10.098326979384487 47.20786064668155 1 0 1
3219 43 1 16.52784575988587 22.255901757384862 57.37680184935839 0 0 0
2662 30 1 8.800720273553432 9.765829371953988 45.80507298360633 0 0 1
3438 43 1 13.214764739824403 21.76738891498538 52.35232172680197 0 0 0
318 7 1 10.11555997063922 5.083525729137677 59.00497816007962 0 0 0
3446 35 1 16.205420664964556 23.01745190813703 48.32622338766035 0 0 0
1122 11 1 3.0876900472568076 14.488587522559403 51.748366607771885 1 0 1
1218 13 1 12.622950856820502 14.934013780764788 55.710410339957065 0 0 0
540 50 1 4.667172300689241 6.911337273368338 48.41944849353108 1 0 1
2145 56 1 9.936647475196823 4.24426458625388 47.21905757426356 0 0 0
6528 54 1 0.7932970854617278 4.60283810892032 58.65555943737653 0 0 0
2665 27 1 10.997202246491106 7.900315626019423 48.1040484427407 0 0 0
833 8 1 9.611541798598678 8.51935367586843 57.66865895561817 0 0 1
554 50 1 14.76789784248072 6.511545840257264 58.771314791965715 0 0 1
2159 56 1 17.989228358087196 5.126766780957568 59.04118910791971 0 0 0
7820 3 1 1.5229507223365935 20.492345165584847 53.740650661450715 1 0 1
6612 62 1 0.6758222977297514 22.13666225213313 59.69818465299424 0 0 0
1209 13 1 6.261155874015961 16.627027571508325 49.10742894168175 0 0 0
7047 54 1 3.2753984941203216 11.993084935766577 56.100848504593394 0 0 0
1216 13 1 11.488824201333761 15.805078929548838 54.09018252990207 0 0 0
1235 16 1 3.263307936841943 19.63824669455586 50.53915466076806 0 0 0
1911 14 1 16.895023140071455 25.820624797695828 57.70595725538358 0 -1 1
1680 19 1 7.072944884307772 20.990784081844755 54.116430912646884 0 0 0
3435 33 1 12.611833439864283 20.597211874859994 49.211443834529454 0 0 1
306 7 1 1.4976121960678779 4.738480419827706 49.374787420159436 0 0 0
1713 19 1 4.303216971340136 23.784275321965183 50.97114573056717 0 0 0
7049 54 1 5.039456553238466 10.870324848957228 57.463808607158256 0 0 0
1210 13 1 6.80154614822066 15.610426032322447 50.00935436146926 0 0 0
1128 11 1 8.02958246964566 12.79332171491855 54.793885942454665 1 0 1
3081 31 1 17.557658553151185 17.630717470939487 56.21486246234977 0 0 0
1 19 1 1.4557434743078363 1.317648665609768 49.88251207346369 0 0 0
2946 28 1 8.57436010884639 14.086970019074954 46.065092814781224 1 0 1
7536 34 1 4.91718356904373 15.333506186948945 57.13810616500794 0 0 0
2955 28 1 13.730845203735647 12.857836284756102 53.631434275168445 1 0 1
2151 56 1 14.187703016067712 2.5214192316545643 51.83408186643627 0 0 0
541 50 1 5.72077578543477 6.565862276141002 49.58818488786663 1 0 1
3074 31 1 12.359824772282604 17.238316821094724 51.54359770697868 0 0 0
6098 9 1 0.9663952853138473 0.44617401573377263 59.024770641415245 0 0 0
5 19 1 5.840726097174288 26.659582927911803 51.83342489715259 0 -1 0
537 50 1 3.8392725010655164 9.13071501073876 45.67731190315932 1 0 1
313 7 1 6.8126100303282 2.98779282917816 55.40664892891742 0 0 0
1936 38 1 15.101213497921497 1.1199763237919365 46.27882501099726 0 0 0
7825 60 1 5.411410977009967 19.096953113171914 57.18153483220901 1 0 0
3153 32 1 15.861162341329777 17.84327725485377 49.569231610108524 0 0 0
3071 31 1 12.452715798136504 15.935679346858127 48.40452607594627 0 0 0
1940 38 1 16.659127334109805 1.9809552112639561 49.451671003163035 0 0 0
1667 17 1 4.32951692611955 21.153379950329565 46.864058147517994 0 0 1
3448 35 1 16.93854458678354 24.2320276103683 50.2800725270889 0 0 0
1790 21 1 13.588022988481926 25.176702830965507 57.965382713052456 0 0 1
1053 12 1 2.9298621717062243 12.381831573933052 46.355767845836326 0 0 1
1905 14 1 13.101156465446888 25.742573162180026 52.53445901987076 0 -1 1
2885 44 1 17.838077203158885 10.397657458014095 50.66079660535661 0 0 1
6788 23 1 3.784361210594366 7.102829177873491 57.71707977710032 0 0 0
2956 28 1 15.156462627323531 13.083401033340653 53.23659596648216 1 0 1
1055 12 1 5.105105183078448 11.699787658927235 47.27952982907661 0 0 1
6323 63 1 4.23079667036113 2.552039666434578 57.69705651961924 0 0 0
1130 11 1 8.055751033421876 13.383701116805257 57.34571138835575 1 0 1
828 8 1 5.650833577860698 7.541582605776153 53.736797301345646 1 0 1
1673 18 1 9.59097780728246 18.876104491570963 51.869771590525815 0 0 0
100 4 1 4.83497023876637 2.56767233608596 47.5205379160475 0 0 0
1212 13 1 8.785238094010714 14.73787113362676 51.299052558267725 0 0 0
3222 43 1 18.156157122787267 23.487741048058478 59.16499451088869 0 0 0
1455 18 1 12.475229878046031 20.869656929479675 56.968507746572044 0 0 0
1776 21 1 4.40230854291497 24.808895317761422 45.42103121811986 1 0 1
3068 31 1 10.35134739464667 18.29616833149886 46.87728699822772 0 0 0
1903 14 1 13.459509093404275 25.03196959475444 50.16950919116636 0 -1 1
1457 18 1 13.49180060656163 20.024008807557106 59.214604590467836 0 0 0
2420 64 1 17.05085574772567 5.983057766131565 49.07869946915366 0 0 1
1245 16 1 10.36954207664785 17.59508223519743 58.490303206255824 0 0 0
2443 27 1 12.844831726915515 7.391760702236054 49.551416957373036 0 0 0
3217 43 1 16.113105674691163 22.749158575429828 54.835012092196116 0 0 0
1791 21 1 13.677197188914894 24.317271212449242 59.215446750812404 0 0 1
1238 16 1 5.1438205107328665 17.86405259812242 53.242220683679655 0 0 0
1123 11 1 3.7918722600925023 13.705187626435334 50.67627180426298 1 0 1
1943 38 1 17.969478011654633 2.386330235690126 51.29164469516687 0 0 0
1937 38 1 14.144331587326906 0.6244763400134155 47.23506707328394 0 0 0
2450 27 1 16.0139146279064 8.75219161869514 55.811192258078606 0 0 0
105 4 1 9.280913145041643 1.0515316497928224 50.229066839656745 0 0 0
307 7 1 2.7606322987557474 4.47433299529946 50.1372083498036 0 0 0
1710 19 1 1.379243034850764 23.338027670154663 48.40414206535454 0 0 0
101 4 1 5.44892763143702 2.8533590875652477 48.88342908120209 0 0 0
2953 28 1 13.922936286168184 11.974751203143734 50.99286999385484 1 0 1
3216 43 1 15.417974329616323 22.07678389114989 53.75342446074693 0 0 0
1454 18 1 12.414778623001789 19.39079757268618 56.86049812610918 0 0 0
5626 48 1 17.897157610199724 20.743354196399537 46.518519117417426 0 0 0
4583 26 1 17.94834337213592 6.802349807975682 45.78332098478399 0 0 0
3084 31 1 18.407343108361978 17.684794982618886 58.90690762715169 0 0 0
3151 32 1 14.7975520358431 18.52428467672624 47.34601761860113 0 0 0
2448 27 1 15.297768401238363 9.705401584605124 53.46383833209369 0 0 0
1684 19 1 9.156628930443146 21.382296010129792 57.12253036237961 0 0 0
1789 21 1 13.569861239749923 24.364238359965487 56.72701078205425 0 0 1
1912 14 1 16.94739661006855 0.6949947212703713 58.07927978262219 0 0 1
7044 54 1 1.9999549727635975 11.709088197252356 53.743666597679606 0 0 0
2451 27 1 16.975114831797057 9.057624134690622 56.93051594574349 0 0 0
1233 16 1 1.6234616789202794 18.326495348071987 49.48219367940935 0 0 0
8087 4 1 12.271520352121897 1.9938138797934946 54.717218848431294 0 0 0
539 50 1 4.216014737797829 8.275182925569302 48.09885937582831 1 0 1
6322 63 1 4.030801282813107 1.1702643178740006 57.127414983861854 0 0 0
1939 38 1 16.08040141638818 1.528092537496076 48.189525888230364 0 0 0
823 8 1 2.7425074301753782 10.372060066548892 50.31502571555478 1 0 1
3075 31 1 13.462664638854019 18.024501556217025 52.204671451763105 0 0 0
7699 4 1 13.158613213033235 1.645646572064405 55.90559821371849 0 0 0
1242 16 1 8.42746117000543 17.0885203075192 55.75927968093528 0 0 0
547 50 1 10.826770104424675 6.997757389259193 53.69672141845204 1 0 1
13 19 1 11.069697564900466 26.11303889065161 59.400010790076635 0 -1 0
1118 11 1 0.9200363893864025 14.895060968641133 47.56266554148006 1 0 1
2366 56 1 7.641320217993499 5.119902519834372 45.89798089559107 0 0 0
822 8 1 1.4920240928608262 11.17596563106024 50.3823915745675 1 0 1
7606 59 1 1.3602333207136987 18.189441000108555 58.4583861016405 1 0 0
552 50 1 13.014827263695663 7.8069732953333615 57.672579952164995 0 0 1
6827 56 1 2.024372181780254 9.444069017601949 58.71445635598059 0 0 0
1220 13 1 13.653436536303206 16.50753926479277 57.34565395500735 0 0 0
2957 28 1 16.226667451098745 13.257692967662205 54.389336743722225 1 0 1
1239 16 1 6.127259015924128 16.934394181515376 52.58427588355868 0 0 0
1678 19 1 6.094117876359376 22.325669350859226 52.15635234385207 0 0 0
1712 19 1 2.747456450133221 23.807021803244474 50.471468332394515 0 0 0
1063 10 1 10.410045480896235 10.62428377232825 54.20165865214484 0 0 0
1786 21 1 10.296449479608984 23.963889147154152 54.502075833462506 0 0 1
2415 64 1 12.766080054770947 5.937942171862372 45.99035445251676 1 0 1
1125 11 1 4.783370210686794 12.901489837977618 52.749786123705704 1 0 1
1670 17 1 7.173396119946389 20.562183899641614 49.36739290523177 0 0 1
1217 13 1 11.882580330196133 16.11815686498247 55.616623957732095 0 0 0
830 8 1 7.034233769553426 9.294160297145563 55.03753365997801 1 0 1
312 7 1 5.53335971983138 2.8493337997884542 54.58935818782326 0 0 0
1208 13 1 4.74555694123897 16.308234380392975 48.754697913924375 0 0 0
1215 13 1 11.006848266295771 14.370648919097949 54.21455860970179 0 0 0
106 4 1 9.71093550548738 1.1181724770579635 51.677905776170526 0 0 0
8481 61 1 3.347437196480211 24.30957009623584 56.514407784648995 1 0 1
3072 31 1 12.219630010721623 15.433152059373569 49.791227630667116 0 0 0
1054 12 1 3.7590336251723064 12.291767916376369 47.70079017793806 0 0 1
2152 56 1 14.473303419734846 3.9345417166422 52.14168079773379 0 0 0
1236 16 1 3.6539883411005984 18.487868922068504 51.349149746957906 0 0 0
1909 14 1 15.852113361014515 0.22924104250053418 55.89644950305043 0 0 1
2576 4 1 9.356845601805809 2.467495459161292 52.22255432377392 0 0 0
7822 3 1 2.3894648479602316 20.814971926603647 55.72708018049612 1 0 1
7534 34 1 3.5670205916407136 15.34719548538211 55.192745358288754 0 0 0
6783 23 1 0.7200551487777005 6.141299083640456 53.67486729523603 0 0 0
2154 56 1 15.75904954713309 5.1575796441668675 53.894547687840515 0 0 0
8484 61 1 5.5716193008305765 24.103311072172687 58.43250218836168 1 0 1
824 8 1 2.5442320544814807 8.99124185409793 50.768112685241306 1 0 1
3154 32 1 17.11772943934387 18.234297950044446 50.38574814406712 0 0 0
104 4 1 8.227072207146563 2.1543575278415226 50.19051472660417 0 0 0
9 19 1 7.932448383673944 26.260253938702874 55.855822396408165 0 -1 0
1222 13 1 14.842108454752116 15.430740927495066 59.23719003004674 0 0 0
305 7 1 1.0804009277581639 6.249800988446453 49.53673527405288 0 0 0
7535 34 1 4.776629395679113 15.991094561357968 55.90103295837527 0 0 0
7533 34 1 2.335933649291195 15.61026201345015 56.092146916714285 0 0 0
1067 10 1 12.6813886261468 12.02607422350009 58.087433505494964 0 0 0
4826 4 1 13.271899280442472 1.8291847213970402 58.3273480482963 0 0 0
2150 56 1 12.99597935317697 2.610912377383419 50.83616860120635 0 0 0
6320 63 1 2.3395225692989015 2.6618999318326604 55.789823445128036 0 0 0
103 4 1 7.773135867010035 2.1786838288135395 48.65406437388929 0 0 0
1781 21 1 7.83392241396474 23.514777133688398 48.99468760882884 1 0 1
1942 38 1 17.625559355968758 0.9317498918893681 51.49208687172386 0 0 0
3444 35 1 14.896208713778618 23.877493016240855 46.45971897086219 0 0 0
308 7 1 2.948159404785488 5.11598329853268 51.482067529083054 0 0 0
7826 60 1 4.969304833444925 19.42175362256914 58.5654945134376 1 0 0
1219 13 1 13.226533781571272 15.065540305954098 57.10350720949659 0 0 0
2452 27 1 18.107150655214394 9.985973881058149 57.02029247817526 0 0 0
1682 19 1 7.806286861553111 22.569989296828513 55.89376774646803 0 0 0
1787 21 1 11.29126048169182 23.955760509662117 55.69578846066455 0 0 1
1240 16 1 6.906852854612209 16.37357043863291 53.65548694775576 0 0 0
1668 17 1 5.118808989590706 21.50211163923557 48.09029105077013 0 0 1
548 50 1 11.558048042579847 5.713336301849317 53.67357926885568 1 0 1
3080 31 1 16.524292934785528 17.74257297829053 55.26189138810014 0 0 0
8482 61 1 4.416707062355726 23.224260095042027 56.35413867993736 1 0 1
7608 59 1 2.68902902044078 16.775217066641602 59.82363768056903 0 0 0
7530 34 1 0.26805896719895045 17.23663328493737 53.38096860868048 0 0 0
6786 23 1 3.038017161087725 5.820490695543641 55.52880237082141 0 0 0
2444 27 1 13.793198359062645 7.824938372134365 50.63892693831064 0 0 0
1211 13 1 8.295664003539212 15.803349943856862 50.33551173000887 0 0 0
2149 56 1 12.798472866317542 4.081060062895852 50.737350864887425 0 0 0
8480 61 1 2.211873293305955 24.575875332998287 55.605498663539436 1 0 1
1241 16 1 7.538342473181443 17.47603638649608 54.599276471452825 0 0 0
314 7 1 7.151225754785097 4.469131543339846 55.35978805193678 0 0 0
2153 56 1 15.434834891284057 3.820611606969954 53.39135770780911 0 0 0
3077 31 1 15.163369967020383 17.23085247507397 53.694607803145125 0 0 0
1711 19 1 2.2209518743057863 22.787349630929263 49.462866164083856 0 0 0
1121 11 1 2.077353620249196 15.220806137976853 50.95839737571975 1 0 1
7607 59 1 1.3199638856983795 16.9693425393493 59.17949964049496 0 0 0
310 7 1 4.83561731319349 3.814429138147989 52.497280868725596 0 0 0
2416 64 1 13.871972512899701 5.958785581378932 46.923095931840194 1 0 1
551 50 1 12.186188241458229 7.028078846139491 56.74810826158294 0 0 1
7045 54 1 1.7278252403200245 10.478409653957101 54.53456402095476 0 0 0
1674 18 1 9.95946177454854 19.11348026132568 53.358343743682404 0 0 0
3221 43 1 18.829317879104554 22.47791117493691 58.31979847796204 0 0 0
2987 29 1 18.62392407201693 15.89399400924757 53.61562168273684 0 0 0
827 8 1 5.575984580416912 9.00192703684638 53.25564205708501 1 0 1
550 50 1 12.949578213449529 6.093532945095067 55.83614804047631 0 0 1
412 4 1 10.19973215928454 1.0155534811244311 53.628218732203464 0 0 0
5360 62 1 1.2545564877828888 21.877566462566165 58.38001245233289 0 0 0
1131 11 1 9.51093867049502 13.38338122565031 57.36207633679389 1 0 1
2 19 1 2.2859524484111797 1.0980359277987017 51.1112584106132 0 0 0
1221 13 1 13.984002813861611 16.604164236773766 58.77445249364086 0 0 0
2959 28 1 16.554971743564575 13.226711308782175 56.986960281249026 0 0 1
6785 23 1 2.434943904737591 7.170443868740058 55.309319288049196 0 0 0
7538 34 1 5.770757427875132 15.74757158018385 59.55788899440842 0 0 0
845 10 1 14.535656242450132 10.663474035073564 58.81703619772104 0 0 0
7532 34 1 1.0801098292262654 15.648130475126614 55.21137036927829 0 0 0
2883 44 1 16.76426129020198 9.172643818255393 48.74613778098852 0 0 1
1913 14 1 18.42228762219322 0.9080960881809782 57.903901075300354 0 0 1
2950 28 1 11.432058075759453 12.422376433920363 48.19553152438799 1 0 1
1129 11 1 7.5065202422334005 13.658137889979857 55.98216151213282 1 0 1
1788 21 1 12.517905333922807 24.77148701923533 55.688288006105914 0 0 1
1708 19 1 0.880846095710337 23.71076501741497 45.79811236227273 0 0 0
304 7 1 0.37362326663715273 6.344293518180799 48.267818063829935 0 0 0
1683 19 1 8.43711438390843 22.769725891595886 57.169886868282596 0 0 0
1244 16 1 8.821996946041995 17.720522439144357 58.084904661255344 0 0 0
6099 9 1 1.7786783107793043 25.919789522140945 58.74842638464994 0 -1 0
3 19 1 3.752377587372826 0.9112252804937427 50.991639458110676 0 0 0
316 7 1 8.741002085388635 3.779902118462391 56.94456462767536 0 0 0
829 8 1 6.212056386770591 7.95360336635632 55.01648704559098 1 0 1
3155 32 1 16.814278600475088 19.68348098957086 50.692484545387615 0 0 0
1714 19 1 4.618023231912321 22.52985986529899 51.658267144603336 0 0 0
1126 11 1 5.807434983972932 12.466364176742866 53.80217494973614 1 0 1
2422 64 1 18.248597298264325 5.693332270015277 51.045915938750845 0 0 1
1780 21 1 7.166444226778049 24.444196444168306 48.009321602694044 1 0 1
1685 19 1 9.65051712347816 21.26132280325835 58.51243196687522 0 0 0
7824 60 1 4.299479863196371 19.150269432917426 56.25971836076738 1 0 0
309 7 1 4.272039999615033 5.202731341023812 52.265933061327004 0 0 0
12 19 1 9.746257103273352 25.821389459983216 58.834397930123124 0 -1 0
1127 11 1 7.260993409253536 12.993964950362074 53.51476362167735 1 0 1
832 8 1 9.019375166981812 8.382174534642505 56.32909975124955 1 0 1
1065 10 1 11.827709150259194 11.155880872168614 55.86487789009591 0 0 0
11 19 1 9.426847828995932 0.10630054362555921 57.73295486731146 0 0 0
2821 4 1 9.650140289460614 2.462955738161465 53.553863198377734 0 0 0
1681 19 1 7.492123256681434 21.10624508289817 55.57065788881985 0 0 0
3076 31 1 14.311247935461159 16.804607465544496 52.52682114603389 0 0 0
8485 61 1 5.586944908298964 23.74791601349526 59.910949117741026 1 0 1
825 8 1 3.9656661794926342 8.630350057871084 51.264876677268326 1 0 1
6324 63 1 5.501388902603474 2.463085158639339 58.48191051448681 0 0 0
3447 35 1 16.168292244466627 24.31853591075602 48.987706547013055 0 0 0
5194 4 1 12.286371693668869 1.8896810223815435 57.20869990872684 0 0 0
2981 29 1 16.587402799180076 13.491413384468068 48.122780999912095 0 0 0
1782 21 1 8.271609533663126 24.32417402322858 50.244784763451975 1 0 1
6 19 1 6.860811709523154 26.415528799106088 53.01112960095999 0 -1 0
319 7 1 11.36905298176392 4.80852767986804 59.70025809885555 0 0 0
10 19 1 7.97917559074732 26.591860064337496 57.330719159892936 0 -1 0
553 50 1 13.420940418514158 7.102494960783871 58.95729752676418 0 0 1
1057 12 1 6.572283607165947 10.651917021712464 48.848647550552414 0 0 1
3431 33 1 10.286943173386353 22.349437743285787 45.87418489500292 0 0 1
37 19 1 1.622716914395146 0.003210764765609029 49.1168405627984 0 0 0
1132 11 1 10.021023953314016 14.439609233565829 58.325312961523885 1 0 1
3152 32 1 15.77891562587405 18.798246385289676 48.37950009241454 0 0 0
3430 33 1 8.882003583867576 22.28187860506431 46.30410707731925 0 0 1
2985 29 1 18.589465135313723 14.644296930014777 51.38486726885196 0 0 0
6789 23 1 5.12763155171873 7.468577239366189 58.33883377164 0 0 0
317 7 1 9.823253118945342 4.041431917303004 58.00538934395112 0 0 0
6325 63 1 6.023943991322522 1.3824754424729173 59.59174177216467 0 0 0