LAMMPS data file via write_data, version 29 Oct 2020, timestep = 32000000

10752 atoms
2 atom types
10752 bonds
3 bond types
10752 angles
3 angle types
10752 dihedrals
3 dihedral types

-1.4019591925125496e-01 3.1008115919238300e+01 xlo xhi
-1.2113307625790526e-01 2.6791853076229280e+01 ylo yhi
 2.6007417207282145e+01 2.5699194279198406e+02 zlo zhi

Masses

1 14
2 15

Pair Coeffs # lj/cut/omp

1 0.0914 3.95
2 0.1947 3.75

Bond Coeffs # harmonic/omp

1 449.5 1.53
2 449.5 1.53
3 449.5 1.53

Angle Coeffs # harmonic/omp

1 62.0967 114
2 62.0967 114
3 62.0967 114

Dihedral Coeffs # opls/omp

1 1.411 -0.271 3.145 0
2 1.411 -0.271 3.145 0
3 1.411 -0.271 3.145 0

Atoms # molecular

1             1             1       28.4493       25.1653       256.947
2            1            1      27.4423      25.2163      27.0124
3            1            1       27.724      26.4284      27.8682
4            1            1      26.7008      26.5089      28.9516
5            1            1      26.9386      25.4901       30.117
6            1            1      25.8049      25.2115      31.1386
7            1            1      26.0089      24.0529      32.1377
8            1            1      25.0178       23.822      33.2876
9            1            1       25.435       22.939      34.4152
10            1            1      24.2425      22.5835      35.3314
11            1            1      24.7703      21.5392       36.298
12            1            1      23.6298      21.1636      37.1581
13            1            1      24.1268       20.258      38.2455
14            1            1      25.1706         20.9      39.1556
15            1            1      25.6785      19.9708      40.2154
16            1            1       26.481      20.5963      41.3955
17            1            1      27.1175      19.6816      42.4322
18            1            1      27.9664      20.3618      43.4352
19            1            1      28.7729      19.5857      44.4545
20            1            1      29.3757      20.4886      45.4543
21            1            1      30.0911        19.74      46.5671
22            1            1      30.7927      20.4603      47.6551
23            1            1     0.322316      19.4864      48.5474
24            1            1       1.0702      20.3243      49.5023
25            1            1      1.68216      19.4371       50.577
26            1            1      2.64103      20.2381       51.395
27            1            1      2.87849      19.7059      52.7497
28            1            1      3.98394      20.4071      53.4975
29            1            1       4.3014      19.6413      54.7706
30            1            1      5.43712      20.2978      55.5206
31            1            1      5.52898      19.4358      56.7898
32            1            1       6.5273      20.1183      57.7679
33            1            1      6.67378      19.1505      58.9486
34            1            1      7.99584      19.5291      59.6087
35            1            1      8.00317      20.6967      60.5021
36            1            1      7.12004      20.4778      61.6489
37            1            1      7.28997      21.7263      62.4746
38            1            1      6.44046       21.781      63.8031
39            1            1      7.02273      22.8704      64.7242
40            1            1       6.2446      23.1287      65.9723
41            1            1      6.91763      24.2752      66.6593
42            1            1       5.9584      24.7095      67.7752
43            1            1      6.27752      26.0347      68.4547
44            1            1      5.21887      26.2344      69.4711
45            1            1      5.86792     0.222736      70.4631
46            1            1      5.01194     0.706506      71.6039
47            1            1      4.78746      26.5349      72.5845
48            1            1      3.78309     0.175801      73.6133
49            1            1       3.3464      26.0989       74.714
50            1            1      2.43056       26.845      75.6782
51            1            1      1.76929      25.9208      76.7104
52            1            1      1.05449      26.6503       77.837
53            1            1     0.045477      25.8977      78.6616
54            1            1      30.6308      26.7531      79.8446
55            1            1      29.6687        26.01      80.7424
56            1            1      29.4678      26.4888      82.2177
57            1            1      28.4248      25.7187      82.9029
58            1            1      28.1299       26.434      84.1882
59            1            1      26.9666      25.6718      84.9311
60            1            1      26.4797      26.4409       86.178
61            1            1      25.7498      25.5362      87.1785
62            1            1      24.9068      26.2067      88.2353
63            1            1      25.7743     0.151708      89.0146
64            1            1      26.7309       26.242      89.7889
65            1            1       27.084   -0.0255602      91.1252
66            1            1      27.8153      25.9756       92.082
67            1            1      28.4225      26.6604      93.3412
68            1            1      29.1179      25.7045      94.3785
69            1            1       29.779      26.5858       95.376
70            1            1      30.8377      25.8674      96.2637
71            1            1     0.361429      26.8159      97.3393
72            1            1      30.4611     0.247077      98.3121
73            1            1      30.9741      1.16296      99.3974
74             1             1       29.8477       1.75422       100.264
75             1             1       30.4506       2.74334       101.242
76             1             1       29.4744       3.08316       102.364
77             1             1       29.8277       4.25199       103.257
78             1             1       28.8913       4.50571       104.409
79             1             1       29.5778       5.34259       105.509
80             1             1       28.6263       5.83921       106.564
81             1             1       29.2601       6.67797        107.67
82             1             1       29.9781       5.90137       108.787
83             1             1       30.8075        6.7313       109.744
84             1             1     0.0434481       5.91652       110.974
85             1             1      0.897252       6.67306       112.027
86             1             1       1.70122       5.86879       113.011
87             1             1        2.4634       6.78177       113.868
88             1             1       3.32874       6.05016       114.805
89             1             1       3.80398       7.00764        115.92
90             1             1       4.57513       6.20659       116.933
91             1             1       5.40192       6.94872       117.969
92             1             1       6.03381       6.04754        119.05
93             1             1       6.87416       6.68532       120.098
94             1             1       7.23593       5.80829        121.31
95             1             1       7.91831       6.54131       122.444
96             1             1       8.60129       5.61077       123.478
97             1             1       7.61762       4.96986       124.418
98             1             1       8.18787       4.07465        125.51
99             1             1       7.02072       3.77524       126.508
100             1             1       7.43998       2.93822        127.76
101             1             1       6.33239       2.40984        128.62
102             1             1       6.90312       1.60977       129.821
103             1             1       5.85198      0.774375       130.596
104             1             1       6.23524      0.067926       131.851
105             1             1       5.06809    -0.0580793        132.77
106             1             1       5.08116    0.00696301       134.366
107             1             1       3.62563       26.8209       134.922
108             1             1       3.66972       26.6748       136.471
109             1             1        4.1488       1.06882       137.138
110             1             1       4.35248      0.844082       138.605
111             1             1       4.78792       2.17542       139.283
112             1             1       5.16151       1.97749        140.78
113             1             1       5.75447       3.20202       141.472
114             1             1       6.57373       2.64966       142.613
115             1             1       5.87714       1.71645       143.583
116             1             1       7.05359       1.13455       144.402
117             1             1       6.74146      0.537756       145.736
118             1             1        7.9866      0.261196       146.578
119             1             1       7.68911       26.4076       147.939
120             1             1       8.83791       25.5928       148.533
121             1             1       8.22795       24.9504       149.756
122             1             1       9.19532       24.4529       150.709
123             1             1       8.57832       23.4979       151.803
124             1             1       7.64532        24.293       152.654
125             1             1       7.07038       23.4997       153.854
126             1             1        6.4304       24.3965       154.955
127             1             1       5.86772       23.6059       156.063
128             1             1       5.17327       24.5495       157.073
129             1             1        4.2186       23.6943       157.945
130             1             1       3.65812       24.3399       159.199
131             1             1       4.75259       24.9414       160.057
132             1             1       4.14934        25.813       161.142
133             1             1       5.21353       26.3026       162.086
134             1             1       4.58491      0.417769       163.047
135             1             1        5.6421      0.790944       163.971
136             1             1       5.08609        1.6945       165.167
137             1             1       6.12248       2.21943       166.147
138             1             1       5.41608       2.75117       167.408
139             1             1       6.34009       3.67859       168.277
140             1             1       5.56117       4.44163       169.334
141             1             1       4.87875       3.55242       170.403
142             1             1       4.00764       4.31933       171.394
143             1             1       3.39005       3.53748       172.566
144             1             1        2.6602       4.34542       173.649
145             1             1       2.02862        3.6089        174.84
146             1             1       1.12036       4.43058       175.731
147             1             1      0.441697       3.53821       176.826
148             1             1       30.7946       4.34498       177.879
149             1             1       30.3891        3.5313       179.114
150             1             1         29.46        4.3217       179.917
151             1             1       30.3291       5.07108        180.91
152             1             1       29.4847       5.74766       181.971
153             1             1       30.3208       6.45143       183.088
154             1             1       29.5063       7.26963       184.128
155             1             1       30.3711       8.05075       185.082
156             1             1        29.462       8.79661       185.975
157             1             1       30.2178       9.58415       186.969
158             1             1    -0.0581652       8.68293       187.912
159             1             1       0.66533       9.38878       189.047
160             1             1       1.35238       8.24531       189.859
161             1             1       1.95513       9.01083       191.018
162             1             1       2.81413       8.10752       191.847
163             1             1       3.35492       8.89819       193.004
164             1             1       4.13947        7.9673       193.949
165             1             1       4.37761       8.74178       195.216
166             1             1       5.52476       8.28481       196.123
167             1             1       5.74781       9.26765       197.277
168             1             1       4.66963       9.48568       198.349
169             1             1       4.91576       10.6998       199.232
170             1             1       3.98795       10.7937       200.451
171             1             1       4.21748       12.0642       201.214
172             1             1       3.46093       11.9608       202.491
173             1             1       3.57116        13.243       203.283
174             1             1       2.64061       13.1292       204.505
175             1             1       2.97858       12.0047       205.573
176             1             1       1.82844       11.8918       206.535
177             1             1        1.9661       10.6988       207.441
178             1             1       1.09503       10.6081       208.689
179             1             1        1.5135       9.45177       209.571
180             1             1      0.693778       9.50893       210.868
181             1             1      0.991644       8.36533       211.823
182             1             1      0.015138       8.26231       212.903
183             1             1       0.18123       7.03319       213.736
184             1             1       30.2611       6.95852         214.8
185             1             1       30.4263       5.77813       215.772
186             1             1       29.4943       5.64934       216.916
187             1             1       29.8507        4.5448       217.826
188             1             1       28.9011       4.47333       219.022
189             1             1       29.2747       3.30362       219.891
190             1             1        28.168       2.95648       220.879
191             1             1       28.6366       1.96376       221.919
192             1             1        27.566       1.70379       223.029
193             1             1       27.9923      0.608821       224.035
194             1             1       29.3208       1.01236       224.761
195             1             1       29.4775      0.407899       226.132
196             1             1       30.5222       1.11775       227.039
197             1             1       30.9609      0.242756       228.221
198             1             1      0.789087      0.986492       229.081
199             1             1        1.2986     0.0791202       230.218
200             1             1       2.11437      0.729706       231.251
201             1             1       2.47278       26.7738       232.394
202             1             1       3.43474      0.631896        233.33
203             1             1       3.90257        26.672       234.521
204             1             1       4.92203       0.55813       235.234
205             1             1       5.35615       26.5323       236.331
206             1             1        4.2322       26.0614        237.23
207             1             1       4.53434       24.9827       238.195
208             1             1       3.69611       24.7843       239.422
209             1             1       4.13014       23.7391       240.436
210             1             1       3.13119       23.5111       241.565
211             1             1        3.5349       22.3368        242.44
212             1             1       2.50021       22.1496       243.549
213             1             1       2.84602       21.0486       244.577
214             1             1       1.77531         20.92       245.696
215             1             1       2.09462       19.8307       246.613
216             1             1       1.11334       19.6549       247.833
217             1             1      0.909073       20.8779        248.76
218             1             1       30.8887       20.5845       249.729
219             1             1    -0.0761462       21.5558       250.889
220             1             1       29.9366       21.9369       251.773
221             1             1       30.3292       23.0683       252.725
222             1             1       29.3148       22.9299       253.867
223             1             1       29.3761       24.0202       254.881
224             1             1       28.3421       23.9345       255.981
225             2             1       1.83781       25.3063       254.009
226             2             1       2.07292       26.4993       254.913
227             2             1       1.01438       26.4955           256
228             2             1       1.06203      0.734301       26.0066
229             2             1    -0.0753553      0.614328       26.9714
230             2             1     0.0753996       1.67044       27.9918
231             2             1          30.2       1.63125       29.1663
232             2             1       30.6264      0.610597       30.2179
233             2             1         29.61      0.587569       31.3136
234             2             1       29.7942       26.3691       32.3094
235             2             1       28.8452       26.1322       33.4449
236             2             1       29.3454       24.9777       34.3477
237             2             1       28.2152       24.5836       35.3628
238             2             1       28.7264       23.5778       36.3833
239             2             1       27.7184       23.4158       37.5288
240             2             1       28.3267       22.4411       38.5631
241             2             1       29.6653       22.7535       39.2218
242             2             1       29.8118       21.9177       40.4833
243             2             1       30.6723       22.6826       41.4519
244             2             1     0.0368853        21.946       42.6483
245             2             1       0.78641       22.8492       43.5639
246             2             1       1.31225       21.9847       44.7097
247             2             1       2.34763        22.769       45.4891
248             2             1       2.79086       22.0885       46.7839
249             2             1       3.65848       23.0041        47.666
250             2             1       4.13852       22.2208       48.8662
251             2             1       4.91057       23.0216       49.8623
252             2             1       5.57502       22.2197       50.9828
253             2             1       6.49956       22.9996       51.8305
254             2             1       7.17154       22.2447       53.0375
255             2             1       8.15335       23.1399       53.7665
256             2             1       8.71936       22.3444       54.9714
257             2             1       9.64639       23.0633       55.8332
258             2             1       10.0964       22.1967       57.0138
259             2             1       10.8308       22.8703       58.1075
260             2             1       11.0995       21.8485       59.1785
261             2             1       11.8806       22.4845       60.3419
262             2             1        11.039        23.412       61.1439
263             2             1       11.5636       23.8803        62.475
264             2             1       10.4706       24.2793       63.4094
265             2             1       11.0289       25.1081       64.5095
266             2             1       10.1358       25.4356       65.6877
267             2             1       10.6394       26.5866       66.5404
268             2             1       9.56405      0.119737       67.5609
269             2             1       10.1034       1.28023       68.3604
270             2             1       9.14454       1.73403       69.4156
271             2             1       9.71994        2.7216       70.3888
272             2             1       8.77406       3.06623       71.5696
273             2             1       8.35678       1.88372       72.5129
274             2             1       7.51045       2.53928       73.6501
275             2             1       7.20396       1.65738        74.796
276             2             1       6.39993       2.30795       75.9469
277             2             1       5.65114       1.32813        76.816
278             2             1         4.925       2.05525         77.89
279             2             1       4.47714        1.0812       78.9533
280             2             1       3.43143       1.77868       79.8249
281             2             1        2.8945       1.01157       81.0624
282             2             1       1.84438       1.84725       81.7751
283             2             1       1.31901       1.09216       83.0421
284             2             1      0.405137       1.80857       83.9799
285             2             1       30.9788      0.921559       85.0746
286             2             1       30.1711       1.65828        86.149
287             2             1       29.9537      0.696726       87.2838
288             2             1       29.6066       1.54787       88.4466
289             2             1       30.0885      0.862324       89.7062
290             2             1       30.8419       1.87315        90.545
291             2             1      0.294523       1.13188       91.8117
292             2             1       1.13155       1.89341       92.7363
293             2             1       1.70652       1.04108       93.8252
294             2             1       2.53907       1.77747       94.9145
295             2             1       3.41127      0.956245        95.851
296             2             1       4.02692       1.75166       96.9837
297             2             1       3.06165       2.33262       97.9742
298             2             1       3.79285       3.13448       99.0838
299             2             1       2.81044       3.84628       99.9626
300             2             1       3.45449       4.70227       101.027
301             2             1       2.35939        5.2297       101.958
302             2             1       2.87696       6.05026       103.126
303             2             1       1.85014       6.33464       104.173
304             2             1       2.27788       7.27214       105.279
305             2             1       1.25378       7.62527        106.33
306             2             1       1.70788       8.68677       107.353
307             2             1       2.42064       8.01789       108.527
308             2             1       3.21055       8.91009       109.494
309             2             1       3.77568       8.00082        110.64
310             2             1        4.5091       8.94923       111.528
311             2             1       5.54533        8.2074       112.382
312             2             1       6.15851       9.19335       113.358
313             2             1       6.78549       8.48747       114.518
314             2             1       7.44466       9.24023        115.61
315             2             1       8.25669       8.30681       116.528
316             2             1       9.05419       9.04484       117.632
317             2             1       9.72916       8.05594        118.59
318             2             1       10.3167        8.7603       119.871
319             2             1       11.1087        7.9271       120.844
320             2             1       11.7274        8.9293       121.834
321             2             1       12.5263       8.22891       122.942
322             2             1       11.5451       7.41981        123.78
323             2             1       12.1562       6.70241       125.007
324             2             1       11.0672       6.27606       125.947
325             2             1       11.4546       5.25311       126.957
326             2             1       10.4332       4.92076       128.048
327             2             1       10.9456       3.86492        128.98
328             2             1       9.93054       3.57466       130.098
329             2             1       10.2632       2.52785       131.095
330             2             1       9.34964       2.59194       132.407
331             2             1       9.57225       1.38132       133.317
332             2             1       8.66142        1.3654       134.513
333             2             1       8.70492       2.50969       135.455
334             2             1       7.71856       2.33693       136.572
335             2             1       7.54958       3.38109       137.537
336             2             1       8.75467       3.41199       138.426
337             2             1       8.58859       4.46327       139.528
338             2             1       9.32082       4.28082       140.773
339             2             1       9.22288       5.40565       141.695
340             2             1       10.2033       5.22134       142.817
341             2             1       10.1326       3.96277       143.581
342             2             1       10.9026       3.99026       144.839
343             2             1       10.8746       2.63645       145.505
344             2             1       11.8372       2.63458       146.654
345             2             1       11.5701       1.39424       147.533
346             2             1       12.5981       1.47706       148.685
347             2             1       12.1561      0.683015       149.967
348             2             1       13.2596     -0.049648       150.824
349             2             1       12.6252       25.8781       151.873
350             2             1       11.6578       26.5595       152.831
351             2             1       10.9561       25.6585       153.843
352             2             1        10.133       26.5151       154.687
353             2             1       9.43605       25.8916       155.882
354             2             1       8.80776    -0.0418466       156.904
355             2             1       8.05898       26.1158       157.954
356             2             1       7.47649     -0.037658       159.141
357             2             1        8.5793      0.563665        160.09
358             2             1       7.91996       1.46232       161.196
359             2             1       9.09244       1.87451       162.153
360             2             1       8.56086        2.8047       163.231
361             2             1       9.56196       3.17423       164.293
362             2             1         8.869       3.91142       165.367
363             2             1       9.89272       4.61585       166.327
364             2             1       9.21753       5.21388       167.536
365             2             1       10.2322        5.9433       168.385
366             2             1       9.59284       6.58795       169.571
367             2             1       8.97609       5.64469       170.589
368             2             1        8.1334       6.45178       171.539
369             2             1       7.43424       5.54203       172.487
370             2             1       6.60207       6.27655        173.57
371             2             1       5.88161       5.38839       174.581
372             2             1        5.2485       6.26781       175.558
373             2             1       4.28029       5.41675       176.419
374             2             1       3.73716       6.21471       177.548
375             2             1       2.88311       5.26001       178.461
376             2             1       2.32206       6.18058       179.552
377             2             1       3.26349       6.68503       180.609
378             2             1       2.51906       7.51041        181.57
379             2             1       3.41652       8.38653       182.517
380             2             1       2.49095        9.2284       183.381
381             2             1        3.0873       9.82536       184.628
382             2             1       2.08164       10.6877       185.347
383             2             1       2.73093       11.5263       186.409
384             2             1       3.48416       10.5346       187.312
385             2             1       4.21946       11.3439       188.301
386             2             1       4.73861       10.4784       189.351
387             2             1        5.3549       11.3095       190.425
388             2             1       5.87615       10.4705       191.609
389             2             1       6.93101       11.1685       192.472
390             2             1       7.23991       10.3529       193.765
391             2             1       8.37613       10.9789       194.558
392             2             1       8.64267       10.3517       195.905
393             2             1       10.0203       10.7512       196.432
394             2             1       9.99999       12.0101       197.213
395             2             1       9.01995       12.0237       198.424
396             2             1       9.14431       13.1599       199.382
397             2             1       8.03776        13.137       200.438
398             2             1       8.09838       14.3949       201.335
399             2             1        7.2992       14.1139       202.587
400             2             1       7.31634        15.176       203.591
401             2             1        6.3417       14.9859       204.756
402             2             1       6.77463       13.8114       205.639