LAMMPS data file via write_data, version 29 Oct 2020, timestep = 32000000

10752 atoms
2 atom types
10752 bonds
3 bond types
10752 angles
3 angle types
10752 dihedrals
3 dihedral types

-1.4019591925125496e-01 3.1008115919238300e+01 xlo xhi
-1.2113307625790526e-01 2.6791853076229280e+01 ylo yhi
 2.6186187887195572e+01 2.5681317211211706e+02 zlo zhi

Masses

1 14
2 15

Pair Coeffs # lj/cut/omp

1 0.0914 3.95
2 0.1947 3.75

Bond Coeffs # harmonic/omp

1 449.5 1.53
2 449.5 1.53
3 449.5 1.53

Angle Coeffs # harmonic/omp

1 62.0967 114
2 62.0967 114
3 62.0967 114

Dihedral Coeffs # opls/omp

1 1.411 -0.271 3.145 0
2 1.411 -0.271 3.145 0
3 1.411 -0.271 3.145 0

Atoms # molecular

1            1            1      30.4778      1.41239      26.9189
2            1            1      29.6713      2.24418      27.8983
3            1            1      29.0926      1.40919      28.9941
4            1            1      28.0791      2.13536      29.9124
5            1            1      27.6519      1.40207      31.1571
6            1            1      26.8194      2.19069      32.1634
7            1            1      26.2635      1.23923      33.1423
8            1            1      25.4687      2.04008      34.1603
9            1            1      24.7275      1.13555      35.0592
10            1            1       23.862       1.9373      36.0337
11            1            1      23.2252      1.04186      37.1085
12            1            1      24.3991     0.504916      37.9461
13            1            1      24.0297      26.7317      39.1987
14            1            1      25.1589   -0.0633812      40.1688
15            1            1       24.685     0.610529      41.4749
16            1            1      25.7552     0.635128      42.4947
17            1            1      25.6178      1.82035      43.4569
18            1            1      26.8709      1.95257      44.3539
19            1            1      26.7484      3.18799      45.2617
20            1            1      27.7379      3.16264      46.3985
21            1            1      27.3749      4.16424      47.4596
22            1            1      28.4553      4.30433      48.5309
23            1            1      27.9539      5.48829      49.3211
24            1            1      28.8369      6.01919      50.4404
25            1            1      29.3666      4.88478      51.2914
26            1            1      30.3049      5.41751      52.3632
27            1            1      30.7683      4.44216      53.3851
28            1            1     0.513664      5.13154      54.3813
29            1            1      0.95839      4.20931      55.4437
30            1            1       2.0615      4.80743      56.2609
31            1            1      2.24154      4.00419      57.4721
32            1            1       3.2366      4.69634      58.2722
33            1            1      3.19209      4.12316      59.6928
34            1            1      3.29278      2.61464      59.6962
35            1            1      3.24898      2.09254       61.162
36            1            1      2.00839      2.58835      61.9297
37            1            1      2.10464      2.11196      63.3425
38            1            1      2.22239     0.602194      63.2854
39            1            1      2.09444   0.00906708      64.6756
40            1            1     0.889789     0.546842      65.3707
41            1            1      0.71154    0.0334585      66.8004
42            1            1     0.926976      25.4641      66.7272
43            1            1      1.18085       24.793      68.0239
44            1            1      2.15238      25.5673      68.8246
45            1            1      2.39799       24.941      70.2238
46            1            1      3.37789      25.7003      71.0778
47            1            1      4.09036      24.8157      72.0906
48            1            1      4.61957       25.697      73.2101
49            1            1      5.28572      24.9013      74.3178
50            1            1      6.15501      25.7997       75.114
51            1            1       6.8161      24.9464       76.224
52            1            1      7.80357      25.6606      77.0724
53            1            1      8.37667      24.7224      78.0646
54            1            1      8.96523      25.4467      79.3008
55            1            1      8.00893      26.0343      80.2768
56            1            1      8.81783    -0.104351      81.2986
57            1            1      7.90046     0.420518      82.4346
58            1            1        8.584      1.40132      83.3764
59            1            1      7.71568      1.87891      84.5171
60            1            1        8.574       2.6878      85.4296
61            1            1      7.80324      3.24822      86.6494
62            1            1      8.47825      4.15231       87.713
63            1            1      7.45284      4.74975      88.6916
64            1            1      6.61622      3.72034      89.4567
65            1            1      6.14307      4.22892      90.7792
66            1            1      5.35956      3.28352      91.7005
67            1            1        4.697      3.98064      92.8583
68            1            1      4.08764       3.0119      93.8675
69            1            1      3.30582      3.86213      94.8805
70            1            1      2.82285      2.97722      96.0282
71            1            1      1.87428      3.67889      97.0294
72            1            1      1.34829      2.66502      98.1059
73            1            1     0.488264      3.51254      99.0277
74             1             1       1.23089       4.21654       100.126
75             1             1      0.160066        4.9156       100.929
76             1             1       1.05608       5.69013       101.906
77             1             1      0.224342       6.42151        102.88
78             1             1       1.07235        7.1037       103.988
79             1             1      0.118713       7.58171        105.11
80             1             1      0.760765       8.22009        106.26
81             1             1     -0.178334       8.86268       107.154
82             1             1      0.496784       9.59599       108.321
83             1             1       1.29118       8.67939       109.199
84             1             1       1.91381       9.46835       110.257
85             1             1        2.8584       8.55898       110.965
86             1             1       3.54523       9.21541       112.095
87             1             1        4.4867       8.25792       112.749
88             1             1       4.98904       9.07916       113.903
89             1             1       5.69946       8.21785       114.931
90             1             1       6.54188        9.0291         115.9
91             1             1       6.93059       8.08692       117.074
92             1             1       5.81373        7.8285       118.135
93             1             1       6.33352       6.82725       119.171
94             1             1        5.2985        6.6005        120.27
95             1             1        5.8451       5.62033       121.286
96             1             1       4.92638       4.98471       122.404
97             1             1       5.54522       4.04913       123.493
98             1             1       4.30168       3.54447       124.286
99             1             1       4.67227       2.44997       125.323
100             1             1       3.67899       2.15875       126.476
101             1             1       4.47517       1.40192       127.452
102             1             1       5.25246       2.29019       128.429
103             1             1       6.04142       1.56767       129.445
104             1             1       6.64919       2.40481       130.552
105             1             1       7.35167       1.52095       131.586
106             1             1       8.00163       2.45484       132.668
107             1             1       8.91828       1.74023       133.614
108             1             1       9.56652       2.58117       134.647
109             1             1       10.4613       1.79932        135.62
110             1             1       11.0814       2.78464       136.585
111             1             1       11.9963       2.03023       137.525
112             1             1       11.3079       1.06592       138.454
113             1             1        12.116        0.4864       139.602
114             1             1       11.2856       26.6707       140.676
115             1             1       12.1152       26.1583       141.818
116             1             1       11.2693       25.3051       142.755
117             1             1       10.5204       26.1032       143.799
118             1             1       9.90652       25.1672       144.854
119             1             1        9.0233       25.9449       145.789
120             1             1       8.55566       25.2195       147.055
121             1             1        7.7237       26.1051       147.979
122             1             1       7.26936       25.2861       149.233
123             1             1       6.40485       26.0819       150.139
124             1             1       5.70911       25.1466       151.101
125             1             1       5.06586       25.9177       152.251
126             1             1       4.42037       25.0265       153.279
127             1             1       5.51382       24.6805       154.288
128             1             1       4.98845       23.8576       155.475
129             1             1        6.0087       23.6376       156.609
130             1             1       5.80519       22.5256       157.689
131             1             1       6.80126       22.6331       158.768
132             1             1        6.8232       21.6482       159.945
133             1             1       8.09865        21.851       160.841
134             1             1       7.72839       22.7566       162.016
135             1             1       8.84792        22.963       163.093
136             1             1       8.40056       23.6817       164.331
137             1             1        9.4517       24.2707       165.233
138             1             1       8.92193       25.1213       166.362
139             1             1       7.96856       24.3944       167.379
140             1             1       7.38463       25.3396       168.409
141             1             1       6.63177       24.7007        169.52
142             1             1       6.00383       25.5923        170.56
143             1             1       5.15746       24.8772        171.61
144             1             1       4.42626       25.6235        172.69
145             1             1       3.89287       24.9468       174.008
146             1             1       2.98371       25.6239        175.01
147             1             1       2.44513       24.7096       176.058
148             1             1       1.53778       25.0749         177.2
149             1             1       1.96613        26.161       178.159
150             1             1       1.02643       26.2257       179.391
151             1             1       1.14793      0.502945       180.334
152             1             1       2.35871      0.667175       181.238
153             1             1        1.9238       1.50735       182.432
154             1             1       2.91413       2.01066        183.52
155             1             1       2.37478       3.08333       184.449
156             1             1       3.38147       3.48363       185.447
157             1             1       2.90047       4.57238         186.4
158             1             1       3.76955       4.65717       187.641
159             1             1        3.0144       5.63455       188.574
160             1             1       2.44255       4.99575       189.778
161             1             1       1.64574        5.8129       190.768
162             1             1      0.930617       4.99517       191.914
163             1             1     0.0838984       5.78904       192.853
164             1             1       30.8107         4.886        193.97
165             1             1       30.1526       5.81249       194.986
166             1             1        29.633       5.07344       196.201
167             1             1       28.6884       5.87143       197.105
168             1             1       28.2013       5.05941       198.297
169             1             1       29.3978        4.7396       199.271
170             1             1       28.8835       3.95825        200.46
171             1             1       30.0617       3.78844       201.372
172             1             1       29.7871       2.64325       202.379
173             1             1       30.8036       2.57826       203.501
174             1             1       30.6481       1.50783        204.59
175             1             1      0.528393       1.72381       205.693
176             1             1      0.661379      0.616061       206.738
177             1             1       1.67663      0.857873       207.879
178             1             1       1.66397       26.5143       208.761
179             1             1      0.551963       26.3187       209.771
180             1             1      0.953272       25.1738       210.757
181             1             1     0.0131801       25.2763        211.91
182             1             1      0.306667       24.2715       213.001
183             1             1       30.2114        24.053        213.92
184             1             1       30.5973       23.0907       215.063
185             1             1       29.4483       22.7808       215.982
186             1             1       29.7351       21.9502       217.206
187             1             1       28.5001       21.8046       218.132
188             1             1         28.74       20.8949       219.355
189             1             1        27.523       20.6053       220.138
190             1             1       27.6987       19.5901       221.329
191             1             1       26.6209       19.5663       222.445
192             1             1       26.9667       20.5496       223.522
193             1             1        25.935       20.7335       224.525
194             1             1       26.2435       21.7461       225.608
195             1             1       25.1401       21.9751       226.666
196             1             1       25.4306       23.0876       227.689
197             1             1       24.2643       23.2038       228.631
198             1             1       24.5651        24.254       229.609
199             1             1       23.3877       24.3641        230.66
200             1             1       23.6292       25.4403       231.718
201             1             1       22.5623       25.2167       232.806
202             1             1       22.5435       26.3724        233.81
203             1             1       23.7155       26.1607       234.725
204             1             1       23.8699      0.286784       235.783
205             1             1       25.0482     0.0931868       236.776
206             1             1       24.9602      0.871737       238.053
207             1             1       26.0844      0.537258       238.987
208             1             1       25.8125       26.4275       240.074
209             1             1       26.8947        26.093       241.108
210             1             1       26.4712       25.0646       242.174
211             1             1       27.6275       24.8582       243.196
212             1             1       27.2017       23.8173        244.22
213             1             1       28.2185       23.7071       245.386
214             1             1       28.0218       22.7501       246.555
215             1             1       29.0388       22.8061       247.582
216             1             1       29.0585       24.1331       248.344
217             1             1       30.0441       24.1685       249.473
218             1             1         29.49       25.3147        250.33
219             1             1       30.4734       25.3537       251.506
220             1             1        30.376       26.6299       252.256
221             1             1     0.0732287     -0.252218       253.458
222             1             1       30.7946       0.92653       254.394
223             1             1      0.681875       1.48465       255.381
224             1             1    -0.0257027       2.25142        256.48
225             2             1       3.48919        3.0743       254.177
226             2             1       4.54409       3.39678       255.274
227             2             1       3.99388       4.33506       256.289
228             2             1       3.16078       3.63397       26.7753
229             2             1       2.42686          4.64       27.6698
230             2             1        1.6869       3.70883       28.6036
231             2             1      0.874541       4.50707       29.5711
232             2             1      0.314005       3.64946       30.7945
233             2             1       30.6734       4.41453       31.7951
234             2             1       30.1578       3.49758       32.8952
235             2             1       29.5349       4.39362       34.0023
236             2             1       28.8303       3.58859       35.0299
237             2             1       28.1126       4.45006        36.094
238             2             1       27.4307       3.47093       36.9759
239             2             1       28.4645       2.89783       37.9846
240             2             1       27.9308       1.96308       39.0668
241             2             1       28.7988       1.78572       40.2578
242             2             1       28.9301       3.09794       41.1088
243             2             1       30.0409       3.10423       42.1445
244             2             1       29.7218       4.13799       43.2562
245             2             1       30.9388       4.15328       44.2023
246             2             1       30.5706       5.01073       45.4161
247             2             1      0.554212       5.18708       46.4071
248             2             1     -0.143746        6.0401       47.3894
249             2             1      0.967996       6.41207       48.3683
250             2             1      0.564841       7.57698       49.2896
251             2             1       1.58791       8.01858        50.253
252             2             1       1.97314       6.98103       51.2088
253             2             1        3.1609       7.48768       52.0654
254             2             1       3.32682        6.7987       53.4348
255             2             1       4.35148       7.35388       54.4215
256             2             1       4.71159        6.4987       55.5361
257             2             1       5.84198        7.0154        56.376
258             2             1        6.2264       6.13332       57.5205
259             2             1       6.96332       6.87509       58.6516
260             2             1       7.41873       5.98172       59.8105
261             2             1       6.28242       5.50689       60.7245
262             2             1       6.74796       4.32102       61.6324
263             2             1       5.70445        3.9967       62.7223
264             2             1       6.08491       2.92357       63.7396
265             2             1       5.12714       2.46933       64.7622
266             2             1        5.5949       1.56283       65.8892
267             2             1       4.48593       1.19205       66.8725
268             2             1       4.86644      0.314951       68.0297
269             2             1       5.86949       1.02198       68.9143
270             2             1        6.3482     0.0895444       70.0333
271             2             1       7.31613      0.680206       71.0501
272             2             1       7.83822    -0.0660793       72.3007
273             2             1       8.70356      0.857538       73.1387
274             2             1       9.49517     0.0801849       74.2091
275             2             1       10.3731      0.894492       75.0974
276             2             1       10.8824      0.140616       76.3528
277             2             1       11.6448      0.948213       77.3591
278             2             1       12.2077     0.0881624       78.5053
279             2             1       12.8446      0.887282       79.6433
280             2             1       11.9369       1.59315       80.6584
281             2             1       12.7266       2.21813       81.7998
282             2             1       11.7677       3.03282       82.7255
283             2             1       12.5564       3.54671       83.9673
284             2             1       11.7407       4.23808       85.0243
285             2             1       12.5695       5.04367       86.0274
286             2             1       11.5073       5.83091       86.7815
287             2             1       12.2931       6.68309       87.8049
288             2             1       11.3544       7.25799       88.8302
289             2             1       10.6492       6.07872       89.5461
290             2             1       9.87623       6.60509       90.7642
291             2             1       9.16191       5.59647       91.6455
292             2             1       8.74556       6.15523       93.0072
293             2             1       8.03107       5.15188       93.9378
294             2             1       7.18286       5.97582       94.8189
295             2             1       6.64972       5.11427        95.949
296             2             1       6.00867       5.85053       97.0856
297             2             1       5.24681       4.89376       97.9365
298             2             1       4.33769       5.63163       98.9206
299             2             1       5.15211       6.38831       99.9635
300             2             1       4.30109       6.86112       101.053
301             2             1        4.9414       7.84646       101.922
302             2             1       4.09583       8.16968       103.151
303             2             1       4.92662         9.035       104.079
304             2             1       3.96055       9.79589       104.937
305             2             1       4.55565       10.3002       106.232
306             2             1       3.67284       11.2278       107.012
307             2             1       4.37718       11.8673        108.18
308             2             1       4.78386        10.984       109.313
309             2             1       5.83467       11.7065       110.099
310             2             1       6.51626       10.7575       111.007
311             2             1       7.30248       11.5009       112.103
312             2             1       8.05715       10.4813       112.951
313             2             1       8.79598       11.2184       114.014
314             2             1       9.43791       10.3333       115.067
315             2             1       10.5701       10.9318       115.842
316             2             1       11.0535        9.9944       116.929
317             2             1       10.0002       9.72921       118.002
318             2             1       10.5561       8.87324       119.097
319             2             1       9.52826       8.60452       120.185
320             2             1       10.0752       7.62149       121.179
321             2             1       9.07127       7.37678       122.297
322             2             1       9.67196       6.39688       123.257
323             2             1       8.47733       6.05017       124.211
324             2             1       8.90791       5.11376       125.334
325             2             1        7.9118       4.78977       126.433
326             2             1       8.47797       3.86118       127.516
327             2             1       9.60503       4.42203       128.279
328             2             1       9.99286       3.55353       129.511
329             2             1       10.7977       4.41008       130.501
330             2             1       11.3003       3.59775       131.681
331             2             1       12.4142       4.35989       132.478
332             2             1        12.814        3.7259        133.78
333             2             1       13.6503       4.69593       134.575
334             2             1       14.5943       3.97177       135.478
335             2             1       15.3795       4.95229       136.404
336             2             1       16.1318       4.14496       137.438
337             2             1       15.1574       3.61843       138.373
338             2             1       15.9481       3.00459       139.534
339             2             1       15.1471       2.20625       140.572
340             2             1       16.0991       1.46079       141.549
341             2             1       15.3862      0.619229       142.608
342             2             1       14.5329       1.20451         143.7
343             2             1       13.9636       0.28891       144.738
344             2             1       13.1713       1.22847       145.604
345             2             1       12.4622      0.512991       146.815
346             2             1       11.3489       1.30096       147.627
347             2             1       11.2277      0.591621       148.957
348             2             1       10.0763       1.21237       149.779
349             2             1         9.892      0.634287       151.089
350             2             1        8.8777       1.36625       151.925
351             2             1       8.37342      0.532051       153.125
352             2             1       9.41331       0.39707       154.238
353             2             1       9.01955        26.403       155.411
354             2             1       10.1569       26.2088       156.346
355             2             1       9.79545       25.2821       157.549
356             2             1        10.919       24.8628       158.409
357             2             1       10.4844       24.1876         159.7
358             2             1       11.5328       23.2628       160.317
359             2             1       12.6201       23.8718       161.112
360             2             1       11.9677       24.6288       162.208
361             2             1       13.0464       25.2325       163.101
362             2             1       12.4077       26.0966       164.188
363             2             1       13.4768     -0.124665       165.038
364             2             1       13.0023      0.777056        166.14
365             2             1       12.2807       26.8054       167.077
366             2             1       11.5432      0.611896       168.193
367             2             1        10.653       26.7221       169.118
368             2             1       10.0361      0.554177       170.261
369             2             1        9.6759      -0.23576       171.515
370             2             1       8.55898       0.54467       172.316
371             2             1       7.88178     -0.219657       173.448
372             2             1       7.24578      0.787927       174.379
373             2             1       6.38291      0.233821       175.419
374             2             1       5.75688       1.07877       176.442
375             2             1       4.96175      0.311513       177.451
376             2             1       4.36576       1.27778       178.497
377             2             1       5.38917       1.80417       179.474
378             2             1       4.92099       2.97858         180.2
379             2             1       5.84533       2.95085       181.454
380             2             1       5.46986       4.05132       182.444
381             2             1       6.51946       4.34594       183.446
382             2             1       6.08555       5.34371       184.461
383             2             1       6.99355       5.40583       185.611
384             2             1       6.64012         6.517       186.509
385             2             1       7.55862       6.85036       187.662
386             2             1       6.84469       7.70005       188.704
387             2             1       5.91849        7.0419       189.733
388             2             1       5.27041       8.02211       190.686
389             2             1       4.66016       7.21686       191.842
390             2             1        4.0301       8.16408       192.908
391             2             1       3.31527       7.45214       194.084
392             2             1       2.73209       8.23355       195.194
393             2             1       2.17408       7.32595       196.252
394             2             1       1.42727       8.14029       197.331
395             2             1       1.18335       7.29212       198.581
396             2             1       2.33007       6.88332       199.532
397             2             1       1.66844       6.04809       200.661
398             2             1       2.65188       5.82541       201.793
399             2             1       2.47171       4.57078        202.66
400             2             1       3.41585       4.66168       203.842
401             2             1       3.38989       3.47211       204.788
402             2             1       4.49315       3.80877       205.838