LAMMPS data file via write_data, version 23 Jun 2022, timestep = 11111117

9706 atoms
2 atom types
9690 bonds
3 bond types
9674 angles
3 angle types
9658 dihedrals
3 dihedral types

0 36.89775039 xlo xhi
0 26.67072 ylo yhi
11.146579606153054 225.60502479376913 zlo zhi
0 6.747329645278804 0 xy xz yz

Masses

1 14
2 15

Pair Coeffs # lj/cut/omp

1 0.0914 3.95
2 0.1947 3.75

Bond Coeffs # harmonic/omp

1 449.5 1.53
2 449.5 1.53
3 449.5 1.53

Angle Coeffs # harmonic/omp

1 62.0967 114
2 62.0967 114
3 62.0967 114

Dihedral Coeffs # opls/omp

1 1.411 -0.271 3.145 0
2 1.411 -0.271 3.145 0
3 1.411 -0.271 3.145 0

Atoms # molecular

1 6 1 10.296589832066816 0.5428044360025369 22.70492274101808 0 0 0
2 6 1 10.853206198060526 1.3342852683825355 23.901912192638278 0 0 0
3 6 1 11.920205773128558 0.6185543090169777 24.702752592597193 0 0 0
4 6 1 12.20750708312736 1.3278598009039253 26.05495412027033 0 0 0
5 6 1 13.466252101782368 0.9140998212632984 26.776833113032247 0 0 0
6 6 1 13.724283095063031 1.4869163953781834 28.169947601068724 0 0 0
7 6 1 14.876304832458663 0.9187597120541008 28.94786729430197 0 0 0
1978 13 1 6.231273280286313 20.951352810715324 11.367766864814653 0 0 0
603 4 1 4.284079426247759 5.572555939343472 14.93905307528072 0 0 0
3255 22 1 17.609755537225592 6.59022580539715 13.864764235578594 0 0 1
600 3 1 1.9528236214128492 6.0111797123924715 11.893413282382825 0 0 1
765 5 1 11.760262338112339 7.231912958522377 18.809187305149486 0 0 0
2054 14 1 4.643176158604017 23.11788897556377 14.429018064722898 0 0 0
4616 32 1 10.662397550100952 23.49122778939012 11.381206113033498 0 0 0
8283 55 1 2.6843441448798697 12.451885686926893 20.056027875974777 0 0 0
7654 51 1 2.8954294234106066 3.2412275103227937 20.01708897483764 0 0 0
1757 58 1 6.347085481692302 19.09132269536395 17.57259703350744 0 0 1
219 6 1 5.660004930801943 0.5873722041938331 16.713988103588182 0 0 0
220 6 1 6.116569720879025 1.366392417879457 17.928105216578757 0 0 0
221 6 1 6.952890378303956 0.47026966756289457 18.832011722221758 0 0 0
222 6 1 7.535261713028179 1.2275618190763427 19.983283693842466 0 0 0
223 6 1 8.715308334738515 0.44374076002238494 20.728290705474812 0 0 0
224 6 1 9.212646832478088 1.2536894441780952 21.916329252662763 0 0 0
304 5 1 10.09588125870236 3.5008866886595147 17.944738337055227 0 0 0
305 5 1 11.283084786510154 2.885380714769513 18.61979663953664 0 0 0
306 5 1 11.60718427496116 3.5298260918502478 19.907172485247095 0 0 0
307 5 1 12.839449821687328 2.8505190225962065 20.498387926054527 0 0 0
308 5 1 13.419320223248704 3.4894802932134352 21.7769672078957 0 0 0
309 5 1 14.436165811835869 2.610978435426508 22.457665596633873 0 0 0
2576 16 1 11.119058921430044 0.5833383947083588 12.403742231312014 0 0 1
7651 51 1 1.331395400399387 3.857411150507187 16.440888380850712 1 0 0
3938 46 1 16.275894520184828 15.726635981816269 11.774669729054738 0 0 0
9496 4 1 0.6669220077542152 25.379275831461534 15.981527399674412 0 0 0
1214 59 1 7.73926837050594 11.917468591957533 12.15097339377967 0 0 0
8281 55 1 1.3807711108678498 12.503442309561699 17.835846734182304 1 0 0
8962 56 1 4.575921223492438 18.518168695033783 28.066183554252408 0 0 0
2139 15 1 3.292583879405023 23.64251830842114 13.881254241727103 0 0 1
7957 18 1 2.2205506329723987 8.699878848387893 18.568643484919786 1 0 1
383 5 1 8.120575646217013 2.7196918871656104 14.708251261156523 0 0 0
384 5 1 8.765680563837249 3.56373721938014 15.833648484425417 0 0 0
385 5 1 9.80458129193438 2.7775293670488055 16.61192477707543 0 0 0
386 4 1 9.329745443704299 6.2678291955515 22.381490995388994 0 0 0
387 4 1 10.340276090039366 5.451392750211956 23.18432261298885 0 0 0
388 4 1 10.89245394619098 6.2551173780545835 24.384921657586805 0 0 0
389 4 1 11.825483246526511 5.340291433362593 25.14822734260182 0 0 0
390 4 1 12.282334844363307 5.958762026537862 26.459689157365503 0 0 0
391 4 1 13.49287566638546 5.271546759958683 27.14661132041514 0 0 0
392 4 1 13.866008944682495 5.964061987553478 28.45983540066969 0 0 0
393 4 1 14.918810603598637 5.261701767534266 29.287993252360447 0 0 0
394 4 1 15.219459080108463 5.809977673616533 30.715363123612704 0 0 0
2358 57 1 6.214042926807395 25.67703814735827 11.408437715024888 0 0 1
8957 56 1 1.0998411612441232 19.477792311571648 22.62770266375719 1 0 0
3253 22 1 16.179519157869663 6.557215756688551 11.730232277798013 0 0 1
1597 10 1 6.433646914578224 16.82295924271493 11.451584786152313 0 0 0
3035 21 1 11.768734066899311 5.407099253508346 13.69989477248961 0 0 0
5930 35 1 1.1920077788021601 11.672891862765448 30.42119911085975 0 0 0
3478 23 1 11.228496142171096 9.164790976606591 11.785042633446642 0 0 1
8512 56 1 2.6555449449865525 14.209331101237115 25.974979093940718 0 0 0
8130 54 1 7.419689252884446 9.2441843495933 32.129380697304796 0 0 0
2579 16 1 13.289745932089362 1.2079746714976618 15.515110441515322 0 0 1
606 4 1 6.089701390719874 6.137830411730591 18.322651718578484 0 0 0
607 4 1 7.011924852012495 5.408527857408 19.26525403190867 0 0 0
608 4 1 7.744983792532271 6.209474930434978 20.36069981271853 0 0 0
609 4 1 8.765450047272289 5.42942768579474 21.25949490552169 0 0 0
689 5 1 13.89745182704085 7.68690634882293 22.014044846389943 0 0 0
690 5 1 14.706956859085482 6.905307642293458 23.018044930889808 0 0 0
691 5 1 15.552378467464518 7.708893122857051 24.05415066155811 0 0 0
692 5 1 16.175288837218435 6.711896497823383 25.063849086679916 0 0 0
693 5 1 16.714635153778087 7.5715661703825035 26.19183500334622 0 0 0
694 5 1 17.631695363122333 6.787926779736654 27.107070975002777 0 0 0
1605 25 1 16.188549020158003 18.213921834728886 30.742175073978476 0 0 0
7431 49 1 1.1804447419091992 0.7304011859810753 23.91344917999786 0 0 0
1229 7 1 15.19852538555585 14.343361993481793 29.835459377764455 0 0 0
1770 13 1 18.235519163881044 20.97149366088141 27.9577883739861 0 0 0
8959 56 1 2.46757004070113 19.267898268076905 24.75807025112534 0 0 0
312 5 1 16.59893815988713 3.1230472419681305 25.75355978918713 0 0 0
2580 16 1 14.260747033573663 0.34971402134181323 16.27253226380646 0 0 1
1754 58 1 4.359093835459547 18.39579477328159 14.290768409390665 0 0 1
3929 27 1 11.763375987108436 13.862431275854215 11.437279912248528 0 0 0
763 5 1 9.904567506859818 7.222843377701546 16.938034467201383 0 0 0
766 5 1 12.541562263259365 8.03617789103708 19.79449906319119 0 0 0
767 5 1 13.102837324058559 7.047069210646139 20.861550351273422 0 0 0
768 6 1 7.223504335377951 10.465134154188444 20.23516027459445 0 0 0
769 6 1 8.636863049845285 10.2939255922206 20.84133290770756 0 0 0
770 6 1 8.87020323766858 10.637459583464217 22.27830124313848 0 0 0
771 6 1 10.212645526613285 10.268565300502026 22.925948101905597 0 0 0
772 6 1 10.33675473335982 10.363378868538739 24.411546478023432 0 0 0
773 6 1 11.698232175423719 9.89600614617802 24.94505068733794 0 0 0
774 6 1 12.14060057943101 10.491619897726867 26.3531179129129 0 0 0
775 6 1 13.300736587217015 9.85396589401932 27.138381668295242 0 0 0
776 6 1 13.622493601373673 10.68021648966607 28.335968534915047 0 0 0
7209 36 1 0.831520659443708 25.84173219778441 29.206505873359493 0 0 0
8035 53 1 6.878564142090497 8.169435647936252 24.81130771716242 0 0 0
686 39 1 7.971935780985396 8.151238516051128 13.568206982871853 0 0 1
1005 59 1 18.62332189104207 11.947546440714977 27.74374932230069 0 0 0
3714 27 1 17.922669855566884 14.248698067769816 21.255981777034826 0 0 0
313 5 1 17.505823575265396 2.3439731278301 26.64393349323415 0 0 0
688 39 1 9.39754813792199 8.14402587209663 15.796098699704494 0 0 1
4096 30 1 13.895677051985503 18.5033072082423 15.125396590317632 0 0 0
986 6 1 3.2024871863815347 10.25262074401672 13.868975198677518 0 0 0
987 6 1 4.596879376326807 10.053124332939651 14.464511406954529 0 0 0
988 6 1 4.647569255114944 10.317784032588046 15.977303604321673 0 0 0
989 6 1 6.094946607796234 10.120989759184075 16.50837407107499 0 0 0
990 6 1 5.9997137255135 10.106675872915961 18.00519127554908 0 0 0
991 6 1 7.282163789562968 9.921733402504296 18.820125789912204 0 0 0
992 59 1 9.077386328857713 11.770648084170897 14.31725217806374 0 0 0
993 59 1 9.088764197131697 12.314429251897733 15.760679204474378 0 0 0
994 59 1 10.127727829678143 11.550821565245284 16.613118999447046 0 0 0
995 59 1 10.754573095996342 12.428796429120723 17.702717083454772 0 0 0
996 59 1 11.650794078916533 11.578504679603869 18.625890293743666 0 0 0
997 59 1 12.36870587541366 12.303181483814173 19.75300645917489 0 0 0
998 59 1 13.320470063591584 11.434254475196994 20.581067844034145 0 0 0
999 59 1 13.627805145267502 12.185124923909619 21.915985753872782 0 0 0
1000 59 1 14.686931683192494 11.35464154466339 22.69258504786727 0 0 0
1001 59 1 15.244047252476703 12.031919670935 23.940532908508487 0 0 0
1002 59 1 16.608831501239592 11.466482142045814 24.38156395595327 0 0 0
5616 38 1 2.6095589740444542 7.30325185930815 32.1502901947314 0 0 0
7755 52 1 5.895426132492234 4.794811386063291 30.224444345814 0 0 0
2583 16 1 16.38546503879002 1.0889557955659737 19.574569580355778 0 0 1
8282 55 1 2.6605430959087664 12.834148936455922 18.579527499231872 0 0 0
1755 58 1 5.017018320043509 19.190156902177975 15.479520894784532 0 0 1
1599 10 1 8.066097483949976 16.945170728020255 13.453259637104548 0 0 0
1215 59 1 7.74247534037154 12.258678124707817 13.637992463390008 0 0 0
1216 7 1 5.886600067479477 14.324178450857115 16.129336883943708 0 0 0
1217 7 1 6.073833421849331 14.95102273703623 17.55049671623696 0 0 0
1218 7 1 7.248069570923403 14.28600040624197 18.288911392131826 0 0 0
1219 7 1 7.41651096632319 14.947253602819309 19.61958197043282 0 0 0
1220 7 1 8.434217208933113 14.260967271168672 20.429730808107877 0 0 0
1221 7 1 8.55302404419939 14.849012736154636 21.84624806519726 0 0 0
1222 7 1 9.918355093045268 14.396258040371578 22.452572623786722 0 0 0
1223 7 1 10.1441279763999 14.621200816775044 23.93970190120767 0 0 0
1224 7 1 11.584319342966326 14.433472415452666 24.389334046377137 0 0 0
1225 7 1 12.079191862232141 14.878505093332215 25.782513252209352 0 0 0
1226 7 1 13.371546281828234 14.230487817102333 26.292488869811052 0 0 0
1227 7 1 13.677506803712582 14.747766010241229 27.72161113547891 0 0 0
1228 7 1 14.871173170208511 14.044827922905133 28.364235106854935 0 0 0
2584 16 1 17.121242291181996 0.146375400439794 20.431098698768118 0 0 1
8030 53 1 2.9764112899891026 7.793870821641352 19.566680526675327 1 0 0
9505 4 1 7.196427300518708 26.109674265456547 25.59167172227857 0 0 0
4918 35 1 17.51434925099038 24.81906561048326 13.892555166121102 0 0 1
3033 21 1 10.368575849245092 5.170669347412746 11.654389594522474 0 0 0
604 4 1 4.691435804903717 6.387830265604904 16.15385011744911 0 0 0
7753 52 1 4.298748867133878 5.088917430875651 28.199139632463247 0 0 0
1292 7 1 3.352288883223569 14.60728635705238 13.284902240727483 0 0 0
1293 7 1 4.369461871719517 13.983472266216035 14.178378318658687 0 0 0
1294 7 1 4.647391707055959 14.81029587299449 15.408178178178098 0 0 0
1376 10 1 9.00101564249529 16.053920370424454 14.316822348605927 0 0 0
1377 10 1 9.75209721117885 16.825679125997375 15.404287784037326 0 0 0
1378 10 1 10.31337838816706 15.944887503394176 16.479518447488843 0 0 0
1379 10 1 11.285719446572811 16.742197123566637 17.437117090883653 0 0 0
1380 10 1 11.740154810659586 15.936610143335184 18.62875554419974 0 0 0
1381 10 1 12.364776647313064 16.77007717238069 19.72793978389973 0 0 0
1382 10 1 13.254689345315125 15.882202632586413 20.593158804310967 0 0 0
1383 10 1 13.75169941425037 16.677511235992 21.851459691988026 0 0 0
1384 10 1 14.779731782980775 15.897644419625685 22.655171829866152 0 0 0
7434 49 1 3.682576901539573 1.5898464644045198 26.84864791299924 0 0 0
3930 27 1 11.967961488709701 14.331538184724321 12.819998243091977 0 0 0
779 6 1 15.960038190981617 9.572246896388451 31.247566885007863 0 0 0
5931 35 1 2.4741637976453363 12.260685252850381 30.90563075466719 0 0 0
9 6 1 16.112099774284555 0.7300984578475614 31.084842653509213 0 0 0
9253 45 1 2.648841309976773 21.638400013133747 18.78633835062234 0 0 0
9510 4 1 10.60648683270765 24.997501301670564 31.04652686573902 0 0 0
3479 23 1 11.902132051706513 9.885909726835596 12.93717890464515 0 0 1
984 43 1 1.6242928264159122 10.326819680676362 11.844356162406381 0 0 1
1600 25 1 11.963549425280004 19.248251476739057 26.104832378993848 0 0 0
1601 25 1 12.706795085764004 18.27356068717742 26.94464727619355 0 0 0
1602 25 1 13.410579738072958 19.101692336053652 28.01074783449178 0 0 0
8121 54 1 0.4825248210530036 10.472295948787883 23.072881266902037 0 0 0
2816 21 1 16.22669151066188 4.456489743010987 18.46634077653799 0 0 0
1603 25 1 14.43349639538745 18.24773712980111 28.799790043561803 0 0 0
6368 12 1 0.6319358410351584 16.62126247435461 28.931404752920706 1 0 0
2360 48 1 7.3876649827895235 25.572372507033986 13.743023096988878 0 0 0
2592 20 1 15.476020801103406 2.58260502615161 12.210733383033125 0 0 0
7955 18 1 0.7123254947320926 8.72469797826774 16.51558303485084 1 0 1
8280 55 1 1.4788476924627938 12.471049231179979 16.323623246317325 1 0 0
8127 54 1 5.094855616806554 10.479616237315673 29.0397448540666 0 0 0
4093 30 1 11.912774702101652 18.19437992609996 11.73211571092557 0 0 0
4544 32 1 16.34179288452667 22.710533371864006 18.20180340023236 0 0 0
8963 56 1 5.091387352171666 19.30479380627668 29.294938467419144 0 0 0
310 5 1 14.973615403434984 3.2770184476489432 23.71997472263893 0 0 0
1672 25 1 7.560726645924623 18.572243250870113 18.349619952104263 0 0 0
1673 25 1 8.092110331459695 19.36299385489122 19.518666604172633 0 0 0
1674 25 1 8.87622897169902 18.512981093798512 20.484517709557828 0 0 0
1675 25 1 9.197498671488223 19.222113681985288 21.763059561593955 0 0 0
1676 25 1 10.212673578941274 18.432723494666813 22.56496435050795 0 0 0
1677 25 1 10.498123830576466 19.105418069004315 23.95801628146291 0 0 0
1678 25 1 11.628265043873217 18.438018250578647 24.850143441248246 0 0 0
1758 13 1 9.105128821187028 20.966861513596566 15.540347297297771 0 0 0
1759 13 1 10.567952602545219 20.738726578531175 16.13532731825581 0 0 0
1760 13 1 11.000712587036276 21.344396750310498 17.4802074672027 0 0 0
1761 13 1 12.214471015067497 20.753271061614374 18.205827055808065 0 0 0
1762 13 1 12.244167665369371 21.155270254001984 19.655449229261954 0 0 0
1763 13 1 13.224182290927676 20.395180776499362 20.57058926447671 0 0 0
1764 13 1 13.70084886015373 21.20331194235069 21.825019887303704 0 0 0
1765 13 1 14.464424909027537 20.239954550608 22.710798421277595 0 0 0
1766 13 1 15.120271352063938 21.029252524751875 23.873179192862153 0 0 0
1767 13 1 15.910575056828467 20.27715051141038 24.922603336672278 0 0 0
6763 45 1 1.265811815481285 20.408885111949996 30.289725652680406 0 0 0
3254 22 1 16.322906765867792 7.099990124663976 13.16761596955825 0 0 1
685 39 1 7.075719011604775 7.3443203039121485 12.670841619408161 0 0 1
9506 4 1 7.717201465899662 25.28431174851759 26.80175201375872 0 0 0
602 3 1 3.2009393833765523 6.289298288199595 14.100645161700033 0 0 1
8128 54 1 5.867121340348168 9.560803654370988 30.033168435408275 0 0 0
8032 53 1 4.503961018849159 7.615487644214882 21.6306059341917 1 0 0
1981 13 1 9.029600928315698 20.481987422406284 14.09425549385258 0 0 0
1982 14 1 8.932054777320936 23.676990086131262 22.261974430376263 0 0 0
1983 14 1 10.000723395856971 22.893680410848653 23.05776609548622 0 0 0
1984 14 1 10.557636043189616 23.66625771048568 24.222115552819677 0 0 0
1985 14 1 11.650169053129655 22.905506339212018 25.011475146759377 0 0 0
1986 14 1 12.077377472431019 23.70039271183804 26.248692981576916 0 0 0
1987 14 1 13.31105947742124 23.19919024005447 26.947678358486378 0 0 0
1988 14 1 13.664194988609111 23.91135025000442 28.207224509171535 0 0 0
1989 14 1 14.6528006777576 23.14890684652437 29.03128172991241 0 0 0
8509 56 1 0.7507297149528154 15.13404530172108 22.72356597831336 1 0 0
3034 21 1 11.757077349552144 5.390559205218188 12.182215821045505 0 0 0
8742 59 1 7.190746989414513 16.26924397236119 26.370918198820625 0 0 0
9340 63 1 2.3013547587099525 23.77930344836163 25.077860733057783 0 0 0
8513 56 1 3.501409571117177 14.988348013995958 26.925865024402363 0 0 0
7665 51 1 11.402613053155893 3.399825943577893 30.962677814611858 0 0 0
381 5 1 6.780396364561523 2.7974978247759137 12.68659071298093 0 0 0
8036 53 1 7.455763734896289 7.367472312325688 25.955532579969848 0 0 0
1606 25 1 16.696913959009247 18.899550473173548 32.006821215735684 0 0 0
2055 14 1 4.855163353986382 23.716958227364703 15.797988960502824 0 0 0
2056 14 1 5.945819852088394 23.026183634212472 16.674658733019328 0 0 0
2057 14 1 6.067246295204383 23.587948541338825 18.040068171923885 0 0 0
2058 14 1 7.013485488465549 22.822424199925035 18.933688580250326 0 0 0
2059 14 1 7.328579264694102 23.67419629633388 20.215272585618468 0 0 0
2060 14 1 8.336702606910375 22.899884169342073 21.090537668375624 0 0 0
2140 48 1 10.551685448471789 25.758979754523303 17.736548010706045 0 0 0
2141 48 1 11.704203021921726 25.02587464066709 18.39847514869461 0 0 0
2142 48 1 12.443188654029951 25.783867731532247 19.436808549772657 0 0 0
2143 48 1 13.369164126956436 24.854573793971618 20.277290501007002 0 0 0
2144 48 1 13.783890749507695 25.444218812196937 21.631818650484533 0 0 0
2145 48 1 14.680628272712525 24.622966921583348 22.636851939085062 0 0 0
2146 48 1 15.173378115669113 25.424498889971645 23.85789231326576 0 0 0
2147 48 1 15.968180064075291 24.563112410172838 24.850314546219657 0 0 0
4916 35 1 16.040893819570105 24.731022724146392 11.637372645379365 0 0 1
214 2 1 1.8482919493134458 1.293820626622715 11.799647558037451 0 0 1
4099 30 1 15.953442411928384 17.78986573445681 18.448505927618644 0 0 0
9501 4 1 4.162511197521049 26.215240016594418 21.42175682827611 0 0 0
9503 4 1 5.594758051920807 26.294460006037458 23.59149873522647 0 0 0
9500 4 1 3.298008173619613 25.283091637352076 20.547236492121776 0 0 0
8736 59 1 3.412099635504294 16.528502167918923 19.834143082168183 0 0 0
1291 7 1 3.042612639828447 13.708790561502518 12.018713340748253 0 0 0
2362 48 1 8.90484673634049 25.677634390172486 15.658762461195856 0 0 0
2363 48 1 9.805423175009055 24.987945731292363 16.616933425279356 0 0 0
3702 40 1 17.329965037394974 10.880533165641541 13.903252105914936 0 0 1
2359 48 1 7.238795003907268 24.94577886407137 12.3137668453484 0 0 0
8965 56 1 6.776057343336332 19.277549105295837 31.34040045034429 0 0 0
8293 55 1 10.384023597177773 12.106716986695812 30.35209455860706 0 0 0
2582 16 1 15.678106000669812 0.36891038898706985 18.419334837193936 0 0 1
780 6 1 16.639074812312145 10.327196387434554 32.41390678566496 0 0 0
9263 45 1 9.887942511559753 21.260117679224557 29.196402111050357 0 0 0
2593 20 1 16.807675197885892 3.0014192585511275 12.736138877707614 0 0 0
1768 13 1 16.76377246335583 21.15620905000256 25.868698933781182 0 0 0
4917 35 1 16.422700651192546 25.420335914940054 12.918064241863885 0 0 1
9511 4 1 11.460172327714464 25.687816382183783 32.09354103304712 0 0 0
8747 59 1 11.544731134097765 17.026840098108103 31.0834546866478 0 0 0
9498 4 1 1.9063789484258944 25.29145131407121 18.152805582167964 0 0 0
1604 25 1 15.23283493784316 19.065798747172686 29.873398342752953 0 0 0
2812 21 1 13.142141408270135 5.156688155499228 14.316571144466959 0 0 0
2813 21 1 13.3074023284773 5.206859907226922 15.829573301440117 0 0 0
2814 21 1 14.823223729965326 4.850313332492893 16.26951859267806 0 0 0
2815 21 1 14.957555361158485 5.018431612377048 17.780707420470684 0 0 0
4538 32 1 11.84144078645082 22.86880468992365 12.046252785564011 0 0 0
605 4 1 5.718516772137012 5.555639145946689 16.9673748713452 0 0 0
985 6 1 3.079322218266782 10.171127306827346 12.352628623235374 0 0 0
7430 49 1 0.8299682883287895 1.5103480696435019 22.647983941064865 0 0 0
8746 59 1 10.497386326817521 16.110577491976635 30.401944243031643 0 0 0
8737 59 1 4.674563510653894 16.92894523511678 20.482816356685113 0 0 0
8741 59 1 7.184944092765966 16.986942844401906 25.00376779841889 0 0 0
9257 45 1 5.514625095781322 21.208315549977918 22.970053407158332 0 0 0
9341 63 1 2.869866758778734 22.911120206708357 26.201361321413863 0 0 0
1290 7 1 1.8409722965435635 14.297599860283256 11.30540973700195 0 0 0
3260 27 1 15.694376264474176 8.958948770547131 17.99702105553378 0 0 0
3261 27 1 16.193368795292546 9.596907829800324 19.31055419050852 0 0 0
8734 59 1 1.7114982889253707 16.91724158581313 17.846004846980918 0 0 0
2138 15 1 2.911733075907457 23.103765348067945 12.487591905249195 0 0 1
6764 45 1 2.2517478701725824 21.3008785140321 31.07046565535053 0 0 0
4546 32 1 17.65335571970386 22.50941789086508 20.369901840916732 0 0 0
3481 27 1 13.230812820017533 9.757694286987102 15.09778239288093 0 0 0
8739 59 1 5.968626308954487 17.016278688440686 22.659393786382886 0 0 0
3482 27 1 14.364452022480656 9.001308417026054 15.817696700050252 0 0 0
3483 27 1 14.765859546665327 9.7855674071029 17.079506137733066 0 0 0
3712 27 1 16.281389209327433 14.180118936362838 19.16855446925153 0 0 0
7652 51 1 1.7592785656313714 3.0093888127031176 17.68366931087528 0 0 0
8745 59 1 10.035363544346364 16.648513369139856 29.063893430002732 0 0 0
4532 16 1 18.07458724809743 20.863375667354678 15.370852972490276 0 0 1
3708 27 1 13.34515345203617 14.095580422105684 14.978260310392837 0 0 0
3709 27 1 14.505352774410758 13.41145080034919 15.747016556075437 0 0 0
3710 27 1 14.699536401219293 13.985970779780931 17.150117495776943 0 0 0
7432 49 1 1.9904078849560403 1.6159032470853187 24.889833426817248 0 0 0
7749 52 1 1.3909999724413615 5.275882645096003 23.832984550589174 0 0 0
2578 16 1 12.60944810097656 0.44811103301398386 14.392987984983396 0 0 1
2148 48 1 16.675533590160686 25.36069194145088 25.989305068979082 0 0 0
2585 17 1 17.880603935826098 0.9137104947446667 21.488704794843542 0 0 0
2819 21 1 17.836353829009198 4.936568924978339 21.9859666189284 0 0 0
3931 27 1 13.304919350486689 13.86480087491498 13.47982637709141 0 0 0
2577 16 1 11.529455110327875 1.2760776742701803 13.690651152274775 0 0 1
7436 49 1 5.022338386883879 1.342945615886934 29.096144939412508 0 0 0
4547 32 1 18.082783567150567 23.13659181135307 21.740212169684487 0 0 0
382 5 1 7.175861505856005 3.6235536881059858 13.891940241271136 0 0 0
9497 4 1 1.424849546192963 26.188149141883123 17.04716896177331 0 0 0
778 6 1 14.97433258247897 10.393799237609686 30.428361211764027 0 0 0
7439 49 1 7.052116038944645 0.28790559553202844 32.257951615379 0 0 0
3939 46 1 16.794031993177647 16.432544732837503 13.037878728077326 0 0 0
4094 30 1 12.632370676275025 18.890920892077244 12.874123667876663 0 0 0
4095 30 1 13.297752943036699 17.931148062936465 13.847342909325379 0 0 0
8511 56 1 2.1120498848884606 15.110144855257468 24.89564741500778 0 0 0
601 3 1 3.0515931991900946 5.536004286079409 12.80754186209781 0 0 1
303 19 1 5.83380016810686 3.5383392457039213 11.74422130951278 0 0 1
8294 55 1 11.753020565952294 12.214343571398581 31.03111230031027 0 0 0
687 39 1 8.392732638705912 7.4581321855392515 14.823117925828894 0 0 1
1756 58 1 5.910244708833794 18.29044369665705 16.322024025993183 0 0 1
9262 45 1 8.96705594736471 20.522470581188898 28.220501187206292 0 0 0
8033 53 1 5.575867723131416 8.315351067114321 22.54128566761309 1 0 0
4102 30 1 18.168204649029903 18.99322020563242 21.494051175428645 0 0 0
4539 32 1 12.075873758960855 23.556148968672858 13.416557253900468 0 0 0
4540 32 1 13.331402073057033 23.069458956755717 14.148426603682921 0 0 0
4541 32 1 13.476100895854765 23.4915956952469 15.57820571913482 0 0 0
4542 32 1 14.785049375334852 22.9404581752069 16.112086769379943 0 0 0
1990 14 1 15.265687013766446 23.831842537542652 30.209275516834683 0 0 0
9338 63 1 0.9298798236788488 23.887859965834334 22.822459740935926 0 0 0
1003 59 1 17.10039763447356 11.95052328807391 25.73347415019262 0 0 0
215 2 1 2.704590625614013 0.4570486627854371 12.789586926913884 0 0 1
8124 54 1 2.9784003734996043 9.687429914564268 25.912038417816184 0 0 0
8966 56 1 7.556284806926874 18.348145203577165 32.288372667139214 0 0 0
4545 32 1 16.620375847838066 23.34903630774196 19.564799194771574 0 0 0
9342 63 1 3.627844316730725 23.742240803038325 27.218092198098653 0 0 0
8964 56 1 5.8292963328285134 18.474845436415958 30.347258620056273 0 0 0
7435 49 1 4.085541972816743 0.7289593108885931 28.085327792358246 0 0 0
217 2 1 4.086093801863021 0.5970116758918896 14.824126002796664 0 0 1
2361 48 1 8.457171915979993 24.806404516304923 14.480162776011671 0 0 0
3480 23 1 12.579283687343121 8.986955832555704 13.951751876665789 0 0 1
9252 45 1 2.16450290258659 20.902352301520715 17.49265987894399 0 0 0
4097 30 1 14.760224460152603 17.724498929112734 16.076631935689477 0 0 0
7956 18 1 1.0201097220919169 8.039406501345768 17.85761581648649 1 0 1
8740 59 1 6.125720508610743 16.363759645278257 24.059242508193343 0 0 0
9346 63 1 6.875955994670268 23.441176604951604 31.18725487734708 0 0 0
1753 58 1 3.3728326139859663 19.30177619272009 13.507178525654606 1 0 1
9254 45 1 3.3465712250492867 20.751135090995184 19.84029534989783 0 0 0
9499 4 1 2.690356563647971 25.999796926232374 19.3128865727819 0 0 0
8129 54 1 6.7348752465752915 10.217552042368215 31.092916053477477 0 0 0
6762 45 1 0.9132632595173622 21.0443463871079 28.91019954512626 0 0 0
9508 4 1 9.352044781318607 25.19180630434045 28.884213802380337 0 0 0
9261 45 1 8.57266549470212 21.32298398723945 26.95019388195444 0 0 0
9256 45 1 4.678506627735685 20.427086112833035 21.970851992724988 0 0 0
2137 15 1 1.6192393573876558 23.621834019054813 11.961859086635876 0 0 1
777 6 1 14.51989698081982 9.72857673764446 29.118512592383006 0 0 0
7752 52 1 3.85125743302134 5.809438443570855 26.950752891687678 0 0 0
6765 45 1 2.400626252172829 20.94744455025916 32.52544142642216 0 0 0
8123 54 1 2.148732862153201 10.563619391928702 25.027475023348742 0 0 0
1386 10 1 16.276286148597396 15.869670600839 24.63214857107733 0 0 0
3263 27 1 17.950742095138995 9.35008277519707 21.160907325699313 0 0 0
9507 4 1 8.85547173069209 25.918972355960776 27.63850700015335 0 0 0
8744 59 1 8.69855380559481 16.177901307661568 28.49919501057996 0 0 0
2581 16 1 14.822101084004768 1.186273662673208 17.431071206708886 0 0 1
8284 55 1 4.047999136235718 12.81992161795644 20.688492582002702 0 0 0
9345 63 1 5.869170129276806 22.706050889130708 30.32763180022692 0 0 0
7754 52 1 5.635301492604673 5.399463896261837 28.845314769870853 0 0 0
314 5 1 18.184767596810477 3.1854196677647475 27.78650861772074 0 0 0
9260 45 1 7.47480609303127 20.583841369858053 26.231221888964992 0 0 0
8958 56 1 1.5092535754657739 18.577116079858012 23.788547705369922 0 0 0
8733 59 1 1.6414436999653115 16.95141935591006 16.328549941453108 0 0 0
1230 7 1 16.528521150167062 14.003122209538066 30.384593554363825 0 0 0
218 6 1 4.58136793750281 1.43911543195206 16.011014212171048 0 0 0
3700 40 1 15.642940532843875 10.915361353575024 11.931431575070649 0 0 1
1751 58 1 1.6012050875846522 19.401272667006783 11.58256489102977 1 0 1
3713 27 1 17.56082891253915 13.722488325521457 19.846336429270913 0 0 0
1979 13 1 7.666255323170814 20.710866795061506 11.929447804136586 0 0 0
5932 35 1 2.8050845923966925 11.578232119446643 32.2391789606744 0 0 0
395 4 1 16.223320650481238 4.9057642268435355 31.497969057703727 0 0 0
8122 54 1 1.5561014191187224 9.720106747396011 23.91376267190988 0 0 0
8743 59 1 8.54234312189195 16.619908961776666 27.077398272961016 0 0 0
5173 60 1 2.2076026127872104 2.822840877427772 32.388918998105225 0 0 0
8034 53 1 5.889462759335785 7.5104573041608775 23.824974831640787 0 0 0
7655 51 1 4.189645675118338 3.643959061268584 20.723778490121894 0 0 0
7656 51 1 4.251177157111875 3.316618165785686 22.26647613230889 0 0 0
7657 51 1 5.630316802199042 3.6208854368589845 22.86002876642335 0 0 0
7658 51 1 5.864124313846205 3.268677238337431 24.3510501145893 0 0 0
7659 51 1 7.227119325282441 3.7390212070848414 24.843956927484456 0 0 0
7660 51 1 7.3511200354313235 3.3053427409241447 26.246952195089865 0 0 0
7661 51 1 8.696548822619086 3.620514389250476 26.866236613870676 0 0 0
7662 51 1 8.89637705942479 2.7997941953046532 28.12169637290971 0 0 0
7663 51 1 10.142196657330514 3.346717504214968 28.839695457481277 0 0 0
7664 51 1 10.376733370124684 2.7143283603637527 30.1900614927094 0 0 0
9265 45 1 11.560452422529071 21.32148188715334 31.10262949670608 0 0 0
1980 13 1 7.705044297347437 20.82064082310373 13.435283387774327 0 0 0
8961 56 1 3.6313394767308687 19.15704877574313 27.040386340156402 0 0 0
9264 45 1 10.651854491259245 20.469102355366108 30.25066105199156 0 0 0
3711 27 1 15.903736356536708 13.403368895734369 17.848768323524016 0 0 0
9504 4 1 6.2503814262274515 25.43410864880657 24.62698969857656 0 0 0
4531 16 1 17.891208066221875 20.464438591422063 13.889555862671347 0 0 1
8514 56 1 4.1404228472403775 14.11175084035835 27.99678712914195 0 0 0
7653 51 1 2.956044149213497 3.5632325150045774 18.54469377822506 0 0 0
9344 63 1 5.257029146141869 23.63745148326652 29.242173447196933 0 0 0
1388 10 1 17.589787305317238 15.725237215397007 26.67102883479044 0 0 0
4098 30 1 15.249417986982637 18.521106018191333 17.318993954908734 0 0 0
8031 53 1 3.74809487352043 8.574103051004888 20.71604514375816 1 0 0
684 39 1 6.405120739155798 8.02481793391173 11.508327932935808 0 0 1
7750 52 1 2.3394156201706053 5.925291445879226 24.850528649028043 0 0 0
7751 52 1 2.778436294071351 5.176308695342059 26.10097051401796 0 0 0
5615 38 1 2.500167908869644 7.829344045810803 30.69277924226973 0 0 0
7438 49 1 6.5158027772819 1.139698655397854 31.130028990161236 0 0 0
9343 63 1 4.375319056640586 22.93763810393511 28.29531788161408 0 0 0
3256 22 1 18.087512202589526 7.399186334555728 15.064120084250034 0 0 1
7756 52 1 6.973964445197487 5.606329530434769 30.94060671956038 0 0 0
8510 56 1 1.0376862422057611 14.455652484202123 24.029078717397205 0 0 0
8037 53 1 8.41536915864912 8.206553217201334 26.809511481281476 0 0 0
8038 53 1 9.0474024558117 7.232855802947391 27.8147230997446 0 0 0
8039 53 1 9.633761481787925 8.049589186653108 28.943712738265855 0 0 0
8040 53 1 10.449979899312313 7.2579292022706845 30.008449857752833 0 0 0
8041 53 1 11.307761170882353 8.087812052496062 30.94531100273554 0 0 0