LAMMPS data file via write_data, version 23 Jun 2022, timestep = 1000

8487 atoms
2 atom types
8471 bonds
3 bond types
8455 angles
3 angle types
8439 dihedrals
3 dihedral types

0 36.89775039 xlo xhi
0 26.67072 ylo yhi
0 236.7516044 zlo zhi
0 7.448720975 0 xy xz yz

Masses

1 14
2 15

Pair Coeffs # lj/cut/omp

1 0.0914 3.95
2 0.1947 3.75

Bond Coeffs # harmonic/omp

1 449.5 1.53
2 449.5 1.53
3 449.5 1.53

Angle Coeffs # harmonic/omp

1 62.0967 114
2 62.0967 114
3 62.0967 114

Dihedral Coeffs # opls/omp

1 1.411 -0.271 3.145 0
2 1.411 -0.271 3.145 0
3 1.411 -0.271 3.145 0

Atoms # molecular

1 25 1 7.321152794477822 1.3710207670351275 8.348392578788387 0 0 0
2 25 1 8.671388985914087 1.1994065479897342 9.114936768562 0 0 0
3 25 1 8.805377041887212 1.6614303284818224 10.5404334973839 0 0 0
4 25 1 10.125367416814594 1.1445869486247777 11.1322575921934 0 0 0
5 25 1 10.25659044137674 1.455517763236499 12.623491262414626 0 0 0
6 25 1 11.501544572272891 0.8262410275673647 13.17003775313951 0 0 0
7 25 1 11.68962535912818 1.175963482328022 14.677377995061082 0 0 0
8 25 1 13.086952239059439 0.8427615801510588 15.233315763205399 0 0 0
9 25 1 13.149092479138588 1.0970770776318066 16.740065640853068 0 0 0
10 25 1 14.487571081755474 0.863545980906331 17.352922468540946 0 0 0
11 25 1 14.644517505897618 1.1576521693787727 18.85608002525005 0 0 0
12 25 1 15.973667524325176 0.7299782534007002 19.525755061424324 0 0 0
13 25 1 15.988185946397188 0.8484933282200358 21.02731287893653 0 0 0
14 25 1 17.322597095849726 0.5976580547191672 21.65834640904455 0 0 0
534 2 1 18.378928546973654 7.844054307040287 17.2425484513193 0 0 0
515 59 1 1.9081220646963646 5.737456756096764 0.14796839327158406 0 0 1
218 25 1 3.296827469151002 0.5600386922842064 0.623859140155929 0 0 0
219 25 1 3.5908478211131487 1.2446055425632423 1.972785246683442 0 0 0
220 25 1 4.558119134856338 0.4612371919818715 2.8064984959181025 0 0 0
221 25 1 4.834509618858992 1.1388677227889488 4.151732433395773 0 0 0
222 25 1 5.9555231182042245 0.48306424629966327 4.873962795178956 0 0 0
223 25 1 6.123719653271547 1.2820133761213717 6.149342762846826 0 0 0
224 25 1 7.362830051205413 0.8542915712202476 6.902803371448403 0 0 0
262 1 1 11.453440451123322 3.6345481528118944 6.857164138611259 0 0 0
263 1 1 12.04195628231743 2.8234590626259 8.005699548667092 0 0 0
264 1 1 12.83929296032235 3.570624256551655 9.124060960719339 0 0 0
265 1 1 13.518590356657267 2.7441982303429153 10.208798908459142 0 0 0
266 1 1 14.266155528695817 3.5629368513992175 11.271158757380002 0 0 0
267 1 1 15.22685571391484 2.7181768407412257 12.235855167347681 0 0 0
268 1 1 15.65357761809545 3.2977175144552957 13.574454788527461 0 0 0
269 1 1 16.574835609042722 2.564403793164097 14.586318237527376 0 0 0
270 1 1 16.938378418234336 3.4286324967390773 15.816860684127363 0 0 0
271 1 1 18.100450152438633 2.8242491241282064 16.57904135604287 0 0 0
272 1 1 18.354044310658672 3.595116147107881 17.86760285761724 0 0 0
2545 18 1 18.272179875355647 0.8798877011751707 10.821982855737366 0 0 0
8306 11 1 5.835396881773752 23.28386204888693 19.275465470485113 0 0 0
294 1 1 7.861982084934811 2.4921752489771913 1.5372177162726859 0 0 0
295 1 1 8.442113594369552 3.4039821858014654 2.6176195789286054 0 0 0
296 1 1 9.321515859542146 2.6497721460466193 3.6601334983486096 0 0 0
297 1 1 10.024024894838105 3.50039794242231 4.710401290741666 0 0 0
298 1 1 10.690521232006994 2.7739720858504584 5.839039637315237 0 0 0
299 2 1 7.691139544786052 5.885813687644668 8.72611584642853 0 0 0
300 2 1 8.75293842081887 5.220560414906621 9.624567198104044 0 0 0
301 2 1 9.043406398929703 6.052031010336622 10.897156224480339 0 0 0
302 2 1 10.17604922218063 5.556459765269491 11.76682488815301 0 0 0
303 2 1 10.527535009972166 6.169726788399142 13.11360729533047 0 0 0
304 2 1 11.54793450452479 5.421043250393795 13.969033305922398 0 0 0
305 2 1 12.027424106621773 6.041583537803722 15.270568361386674 0 0 0
306 2 1 12.962117240769228 5.170608689697974 16.13791047011784 0 0 0
307 2 1 13.32452519012045 5.941679210782998 17.415585761026037 0 0 0
308 2 1 14.323805729334218 5.195947889414352 18.23031769535771 0 0 0
309 2 1 14.600493858938142 5.933689006559844 19.51751233005895 0 0 0
310 2 1 15.727439960604997 5.217677635647371 20.255188926857265 0 0 0
311 2 1 16.0981409030241 5.862609161142459 21.58993227521525 0 0 0
312 2 1 17.066388126296662 5.090502806705573 22.49485462013552 0 0 0
983 6 1 19.037205500271593 11.580142903288833 19.07728126757732 0 0 0
8469 64 1 11.00591166115708 26.072507218514115 20.018686517671387 0 0 0
516 2 1 2.8366044190961426 4.865254449824219 0.9973602008675683 0 0 0
517 2 1 3.2100191855833136 5.549495983805956 2.367414632001604 0 0 0
518 2 1 4.405359908715312 4.862738498178487 3.0962367564079254 0 0 0
519 2 1 4.93087441341391 5.582239590505927 4.3063338987705 0 0 0
520 2 1 6.000677146245161 4.846909907877058 5.114420034507061 0 0 0
521 2 1 6.3611500685031395 5.616209964034407 6.418259677256661 0 0 0
522 2 1 7.411862995959149 5.076034935635404 7.404399824964934 0 0 0
523 2 1 10.1481846139601 7.481526298157362 5.607276794872438 0 0 0
524 2 1 11.115776755544992 8.303174506912647 6.524534434800996 0 0 0
525 2 1 11.738773587559447 7.440609456208178 7.568962373735605 0 0 0
526 2 1 12.669989362110432 8.240780994957918 8.548163609674798 0 0 0
527 2 1 13.272815834697445 7.448585357114659 9.730966356345517 0 0 0
528 2 1 14.33813824506677 8.12997416863181 10.636412204061582 0 0 0
529 2 1 14.596085314150097 7.377110260489448 11.999532642146164 0 0 0
530 2 1 15.56495253970451 8.14098515466234 12.907754953583902 0 0 0
531 2 1 15.9843409154053 7.376184871733341 14.175245080457744 0 0 0
532 2 1 17.074390575987287 7.946859989312364 15.081916507641775 0 0 0
533 2 1 17.165366362950408 7.357706065136328 16.475638358007554 0 0 0
5186 12 1 3.945693453005804 8.40887107897489 23.38797510983688 0 0 0
1878 13 1 18.81827888264368 21.157105991132816 18.103033846414416 0 0 0
742 2 1 6.224129407874071 7.910953067879604 0.4140006843097623 0 0 0
743 2 1 7.026075421456093 7.2347990774834585 1.5103375147439464 0 0 0
744 2 1 7.8493349891164845 8.090396923309166 2.496576143024229 0 0 0
745 2 1 8.674624542232294 7.32683049410107 3.5459099954817823 0 0 0
746 2 1 9.388457828089459 8.212571983151133 4.5251192722378875 0 0 0
747 9 1 7.395917059060926 10.286128543844299 8.373814143310398 0 0 0
748 9 1 8.699009306626676 9.87324101166372 9.057589264489078 0 0 0
749 9 1 8.889498200991994 10.398342206254572 10.46876147886604 0 0 0
750 9 1 10.13551706044337 10.030982216133975 11.214297650281079 0 0 0
751 9 1 10.297964317680941 10.619718272164118 12.599460589845684 0 0 0
752 9 1 11.485895269135293 10.044959290892052 13.342457018098528 0 0 0
753 9 1 11.5619140609877 10.366698408594363 14.852916497326289 0 0 0
754 9 1 12.766842844984444 9.795958078869518 15.618738136107984 0 0 0
755 9 1 12.78695269300754 10.006103584273035 17.137782421548746 0 0 0
756 9 1 14.183889777122259 10.001218636546314 17.745153975256343 0 0 0
757 9 1 14.179123849783998 9.746531918616007 19.23349887012409 0 0 0
758 9 1 15.536414772539182 9.840067919268828 19.912104073021588 0 0 0
759 9 1 15.415144330916922 9.903428425780502 21.453897528477537 0 0 0
760 9 1 16.81190376125835 9.985126816162865 22.065940231546584 0 0 0
761 9 1 16.81637271675933 10.09643094421079 23.5983443199457 0 0 0
8468 64 1 9.734227491905415 25.550412891368836 19.37639121023495 0 0 0
964 9 1 2.5532313252228946 9.707638102785069 0.7289413073649578 0 0 0
965 9 1 2.787453799850849 10.177740318737785 2.1354963427404354 0 0 0
966 9 1 4.224411796092931 9.969808587470263 2.689455911868685 0 0 0
967 9 1 4.354970529932302 10.324664707359435 4.188809713227141 0 0 0
968 9 1 5.721174353057724 9.993537611679093 4.745361274213058 0 0 0
969 9 1 5.894868574097413 10.365479064602603 6.2451981196907935 0 0 0
970 9 1 7.246788138823467 10.010688409357565 6.890361909934064 0 0 0
971 6 1 10.475685875899481 12.25447230546693 6.364919139894345 0 0 0
972 6 1 11.716269283770584 12.757697731586775 7.0991519630378495 0 0 0
973 6 1 12.081643110781103 12.039143172562301 8.414256048696766 0 0 0
974 6 1 13.110117275948738 12.757018946485244 9.244875600257151 0 0 0
975 6 1 13.30389580408498 12.213961240538394 10.688423785040774 0 0 0
976 6 1 14.686934147073533 12.586462641618994 11.276155932936813 0 0 0
977 6 1 14.900115747209687 12.023636885773673 12.682471549411057 0 0 0
978 6 1 15.96313133070666 12.73289739658456 13.489849866654103 0 0 0
979 6 1 16.439566572304063 11.958343752734189 14.745356100708793 0 0 0
980 6 1 17.43928392877319 12.71657076397836 15.64567320739218 0 0 0
981 6 1 17.76406574853731 11.835622036387091 16.81826198939419 0 0 0
7159 6 1 0.1264926472036913 7.244038796635092 3.8368846154579286 1 0 0
3373 36 1 18.363745528567517 11.761499030093573 3.7779241135791417 0 0 0
1190 6 1 7.769753794489901 12.321856019626601 0.4476696947929629 0 0 0
1191 6 1 7.829936348162707 12.031779332178179 1.9881085917797596 0 0 0
1192 6 1 9.08294563010661 12.485463253009144 2.703212776799874 0 0 0
1193 6 1 9.096252197953842 12.13541524378361 4.164405864076256 0 0 0
1194 6 1 10.37110296669615 12.699855024900721 4.87531666356451 0 0 0
1195 15 1 7.367461781248871 14.499644465012324 8.464920735792402 0 0 0
1196 15 1 8.801225285112064 14.401493142911697 9.019238972169513 0 0 0
1197 15 1 8.737212897475377 14.74467672692656 10.490638114597909 0 0 0
1198 15 1 9.97670096502789 14.25648163347888 11.277013588923202 0 0 0
1199 15 1 9.960350672800613 14.427652656453732 12.806044513467294 0 0 0
1200 15 1 11.271873982441006 14.123344671083387 13.483399842263582 0 0 0
1201 15 1 11.323366464173018 14.72483648248715 14.883303076753691 0 0 0
1202 15 1 12.71003484277685 14.452724536357781 15.554836652614135 0 0 0
1203 15 1 12.744962782214339 14.511363052720034 17.094862636534288 0 0 0
1204 15 1 14.172163465040597 14.44489948268234 17.643528535687693 0 0 0
1205 15 1 14.157381133303916 14.557430517529667 19.169264719687636 0 0 0
1206 15 1 15.536547625609993 14.558101539808094 19.83196488943072 0 0 0
1207 15 1 15.522547806680997 14.526970036094923 21.337469025011814 0 0 0
1208 15 1 16.925811423834077 14.553641309374907 21.97271886535092 0 0 0
1209 15 1 16.967721736184462 14.362746742369408 23.50259175616092 0 0 0
8467 64 1 9.72855931240152 25.791211913273994 17.896542504321985 0 0 0
1412 15 1 2.9990604023735656 14.226211345592871 0.6589914493456562 0 0 0
1413 15 1 3.015136434406008 14.565150016971796 2.140244017608367 0 0 0
1414 15 1 4.319227785414103 14.216901403708817 2.809953555675875 0 0 0
1415 15 1 4.442147179571781 14.615492843099892 4.247303200352848 0 0 0
1416 15 1 5.842179157232708 14.593808276999455 4.855584588774388 0 0 0
1417 15 1 5.81562191136872 14.454953133932742 6.39083724735573 0 0 0
1418 15 1 7.183103632055966 14.094832171682736 6.972801906653635 0 0 0
1419 9 1 10.490667067914842 16.68727718992129 6.133593287271589 0 0 0
1420 9 1 11.887596682551495 16.974193403124644 6.777074109245687 0 0 0
1421 9 1 11.831805827732145 16.749252832549292 8.348582928551236 0 0 0
1422 9 1 13.1858104640318 16.87999582166923 9.125598479142258 0 0 0
1423 9 1 13.20003378713034 16.552043637472593 10.63048639496928 0 0 0
1424 9 1 14.598424160151975 16.629340787013273 11.320468693081875 0 0 0
1425 9 1 14.696311777756337 16.35171404061118 12.83882294588611 0 0 0
1426 9 1 16.07752402290331 16.46107764045908 13.515541481204405 0 0 0
1427 9 1 16.142570924048734 16.33064649670475 15.060958740620075 0 0 0
1428 9 1 17.52301984075225 16.467831293553058 15.669760222648799 0 0 0
1429 9 1 17.64549430379543 16.5441701136683 17.19119310310997 0 0 0
7686 60 1 0.6214343154595556 13.985097169259882 11.267305288355189 0 0 0
4267 33 1 18.304647081385486 24.77817486979219 4.01357982282977 0 0 0
1638 9 1 7.473312669240135 16.371459101328625 0.3597208612284832 0 0 0
1639 9 1 7.62801224131958 16.235128524339487 1.8820645969690928 0 0 0
1640 9 1 8.949330051302331 16.635232765140014 2.422124289073679 0 0 0
1641 9 1 8.972804863300679 16.574752049327408 3.9933547674029697 0 0 0
1642 9 1 10.302543458856446 16.970059097847443 4.6085948485077095 0 0 0
1643 10 1 6.980392316134315 18.81128752931221 8.565406717506447 0 0 0
1644 10 1 8.343334547758936 18.415884114963145 9.256089083226922 0 0 0
1645 10 1 8.652164364550929 18.99706331186381 10.62967519107943 0 0 0
1646 10 1 9.967516452409358 18.40899765375259 11.184213703256178 0 0 0
1647 10 1 10.511709074075656 19.153051998391597 12.447986499819404 0 0 0
1648 10 1 11.445075657927294 18.36472951137861 13.392381551374957 0 0 0
1649 10 1 11.618583984481734 18.91608081952918 14.753642832938986 0 0 0
1650 10 1 12.803731634280531 18.381750808392297 15.4923881442621 0 0 0
1651 10 1 12.882110149519221 18.85666455460558 16.926404382170308 0 0 0
1652 10 1 14.032233465243854 18.202913737665003 17.750568414452353 0 0 0
1653 10 1 14.160151418071266 18.901486099270425 19.103543223786478 0 0 0
1654 10 1 15.320603828308112 18.42237725234368 19.990583071229683 0 0 0
1655 10 1 15.692801994507185 19.067254009910513 21.299462350642116 0 0 0
1656 10 1 16.89373770005239 18.589696816337437 22.06055218860505 0 0 0
1657 10 1 17.154885040468596 19.172792103439974 23.484339503669887 0 0 0
8309 11 1 7.344698976427529 23.170876049584447 22.9598422562999 0 0 0
1860 10 1 2.7190674032355635 18.213053472380725 0.7055700647184934 0 0 0
1861 10 1 2.998138635966919 18.873406702600604 2.0331439431540663 0 0 0
1862 10 1 4.203529077881647 18.348589768931575 2.83694839156465 0 0 0
1863 10 1 4.551018302320047 19.04621492855216 4.127256378960165 0 0 0
1864 10 1 5.740447484568048 18.513565185921976 4.872415591834383 0 0 0
1865 10 1 5.916236831953726 19.07827118046003 6.276161358030504 0 0 0
1866 10 1 7.0468488157414315 18.45491405495485 7.0513754298248985 0 0 0
1867 13 1 10.578928608307013 20.926017197638483 6.694164089508741 0 0 0
1868 13 1 11.894157043882627 21.176095983151573 7.439402585838186 0 0 0
1869 13 1 11.986101808929192 20.72361617803727 8.913404234973262 0 0 0
1870 13 1 13.409143656192276 20.918582621218246 9.421043535868142 0 0 0
1871 13 1 13.484529316578094 20.531199705527364 10.885885268655583 0 0 0
1872 13 1 14.809853709366623 20.74521300090006 11.574720875489028 0 0 0
1873 13 1 14.916616096166267 20.273572207353507 13.002650679457796 0 0 0
1874 13 1 16.11432288031424 20.85163265916778 13.753281710334214 0 0 0
1875 13 1 16.1528892917299 20.566090887749276 15.244101779721007 0 0 0
1876 13 1 17.497981753100703 20.981330500389987 15.959191622195142 0 0 0
1877 13 1 17.6493616976977 20.531873149114784 17.364050819761694 0 0 0
8308 11 1 7.203617165052238 23.537364179753716 21.46628173059483 0 0 0
8460 64 1 4.661512912280495 25.17057483665951 10.581148040646028 0 0 0
2086 13 1 7.508873852415622 20.832091401004078 0.900229465999817 0 0 0
2087 13 1 7.7310004319230385 20.568146709253064 2.3607630948299767 0 0 0
2088 13 1 8.99307184161443 21.158308987388214 2.9690733634397715 0 0 0
2089 13 1 9.07531388568833 20.93819059781329 4.516405394804011 0 0 0
2090 13 1 10.474095020526912 21.099023714858397 5.174207972244445 0 0 0
2091 17 1 7.926059088434909 23.704981067949298 8.122397105712304 0 0 0
2092 17 1 8.372145697396899 22.967853735979062 9.388678052548686 0 0 0
2093 17 1 9.175589368509002 23.84304272495983 10.312061410273033 0 0 0
2094 17 1 9.684116005455044 23.072812124974558 11.557105157941843 0 0 0
2095 17 1 10.464277225119865 23.963272200555288 12.53058227619189 0 0 0
2096 17 1 11.159036936666713 23.0873227184416 13.60513096625651 0 0 0
2097 17 1 12.071563408801826 23.930244475966898 14.521516050859592 0 0 0
2098 17 1 12.85676513081258 23.08733041991643 15.49592913308764 0 0 0
2099 17 1 13.259528000702637 23.875421880846073 16.789752761550957 0 0 0
2100 17 1 14.011014738191303 22.994743236618852 17.75418527004623 0 0 0
2101 17 1 14.703165100686052 23.774157513401697 18.91624836427459 0 0 0
2102 17 1 15.487865110402668 22.83830725525944 19.860127498389712 0 0 0
2103 17 1 15.82330230502174 23.609718419813415 21.11348634576976 0 0 0
2104 17 1 16.738838023411635 22.870944708534893 22.035005172288827 0 0 0
2105 17 1 17.087436445194598 23.588672239093565 23.347882555321423 0 0 0
2085 5 1 6.181940735024032 20.287327040480346 0.3881882483355093 0 0 1
2308 17 1 2.9234585430019373 22.356475922746753 0.7280602129343784 0 0 0
2309 17 1 3.9066634334001407 23.20054176742227 1.516007260057521 0 0 0
2310 17 1 4.384386374327036 22.646421895601076 2.8695368599083033 0 0 0
2311 17 1 5.028756630779174 23.61463311370452 3.901606639033429 0 0 0
2312 17 1 5.5254115861482775 22.782606515931345 5.116385838113989 0 0 0
2313 17 1 6.278983869594827 23.539024174667677 6.19398165225205 0 0 0
2314 17 1 7.015354522977809 22.798250003828922 7.315008842183719 0 0 0
2315 17 1 10.693297993147603 25.375329069000642 6.189637090625077 0 0 0
2316 17 1 12.009194668145309 25.006153907895076 6.889566480322624 0 0 0
2317 17 1 12.127358109196251 25.47121863623141 8.343322514335773 0 0 0
2318 17 1 13.485743331202483 25.325976918849808 9.002287615332277 0 0 0
2319 17 1 13.49178984828671 25.400977570846635 10.519572686228955 0 0 0
2320 17 1 14.918622733985075 25.42161692225717 11.147168470223885 0 0 0
2321 17 1 14.947534130194319 25.414240257792777 12.652620728844541 0 0 0
2322 17 1 16.314859913635715 25.185258842559193 13.29329974345757 0 0 0
2323 17 1 16.289583859214293 25.218635482788493 14.84784860460131 0 0 0
2324 17 1 17.68849673065156 25.21876133202256 15.493704876236043 0 0 0
2325 17 1 17.674219011273422 25.10064523374753 16.9771196548251 0 0 0
3097 21 1 16.73404635771244 7.4885939701441 0.5538918280217968 0 0 0
8459 64 1 4.3660568796928585 25.86195873091475 9.242668693771245 0 0 0
2534 17 1 7.794981922084701 25.42139305076724 0.2725041388735191 0 0 0
2535 17 1 7.721007929606217 25.228938631732657 1.8028118298288267 0 0 0
2536 17 1 9.07172130236722 25.42932274347333 2.5179209890269703 0 0 0
2537 17 1 9.223975644600488 25.171813457845353 4.009671590583099 0 0 0
2538 17 1 10.590677114828349 25.024682578594348 4.691317837608613 0 0 0
2539 18 1 13.983183176361537 0.7440283311813086 4.512479827526409 0 0 0
2540 18 1 15.241572715123125 0.20623539288863013 5.295081299086451 0 0 0
2541 18 1 15.330935482898472 0.6194269515516169 6.783792852822789 0 0 0
2542 18 1 16.561609142551156 0.07053794172507251 7.487276852122087 0 0 0
2543 18 1 16.704226008682177 0.6368483135204712 8.938178744555751 0 0 0
2544 18 1 18.0587927072615 0.18926160427983268 9.506275163955186 0 0 0
8298 11 1 0.47341769027257335 23.335757372099092 10.749950734553618 0 0 0
2760 18 1 12.375761059021793 0.3382321331571728 1.0236002235989523 0 0 0
2761 18 1 12.657122923797889 0.8921338857780056 2.408803604326481 0 0 0
2762 18 1 13.857460431379547 0.2178570143378457 3.118153064065946 0 0 0
2763 10 1 16.485219699900707 2.9943301905917696 1.3902506443469165 0 0 0
2764 10 1 17.622811639297808 3.5237842203234373 2.2314626675174547 0 0 0
2765 10 1 17.749153383488743 2.847939781385513 3.5884932856088554 0 0 0
982 6 1 18.491642961574374 12.5177240492591 17.968806105338416 0 0 0
2987 19 1 13.609224411578328 5.611536908380974 4.746146600635227 0 0 0
2988 19 1 14.784104940139978 4.957396142442009 5.448429108647688 0 0 0
2989 19 1 15.340095604538197 5.541370779335475 6.740600829858746 0 0 0
2990 19 1 16.195197620133307 4.726627504925751 7.63151196436963 0 0 0
2991 19 1 16.63642259848684 5.522525309870935 8.865537914941642 0 0 0
2992 19 1 17.653007571759353 4.80236991843323 9.7674522430287 0 0 0
2993 19 1 18.045066458942394 5.69252524116363 11.006741241833115 0 0 0
3021 19 1 12.386242488171535 5.126137455012879 0.958196567934335 0 0 0
3022 19 1 12.352311627405937 5.584049148653934 2.44541384954527 0 0 0
3023 19 1 13.389515257877035 4.978886473346061 3.3707173779674813 0 0 0
3061 21 1 16.6275337807439 7.742850141792843 2.0820062659484235 0 0 0
3062 21 1 18.014968152660312 7.972923363476858 2.7339653694811408 0 0 0
3063 21 1 18.051439189446132 7.833271610087889 4.198267665041241 0 0 0
7388 56 1 0.6688592492484754 9.684773729679439 10.649611494317929 0 0 0
3147 23 1 13.068917089691144 10.096316127180371 3.9002752671257506 0 0 0
3148 23 1 14.524862251302265 10.092552316891556 4.428740589334339 0 0 0
3149 23 1 14.777327410105453 10.356465041955879 5.938349725983097 0 0 0
3150 23 1 16.173069178866267 10.195950311214391 6.49078416368947 0 0 0
3151 23 1 16.242457456530076 10.166601317695392 8.018747707150604 0 0 0
3152 23 1 17.695997070015167 9.895370759843683 8.55928875499496 0 0 0
3153 23 1 17.880075542595762 9.976691150362628 10.064942206132354 0 0 0
3368 23 1 11.650317822827397 9.611269681506306 0.37843669175913075 0 0 0
3369 23 1 11.64257639089121 9.81135186553886 1.8334363110831664 0 0 0
3370 23 1 12.986842762531573 9.65128963303972 2.461283357368 0 0 0
3371 36 1 16.859865098225928 11.513485357315139 1.6818741323427637 0 0 0
3372 36 1 17.877795059709086 12.296531594659482 2.423128853882074 0 0 0
8307 11 1 5.8236328052059605 23.305042119105572 20.81135913866294 0 0 0
3407 36 1 16.48984687379543 12.060414331642145 0.319491888857891 0 0 0
3445 27 1 13.432920196136038 14.656864732883152 4.212326649881476 0 0 0
3446 27 1 14.606207064605048 13.95189025983307 4.903210398219606 0 0 0
3447 27 1 15.120418868422906 14.627668762769119 6.139759359993562 0 0 0
3448 27 1 16.077167641132352 13.814841471941763 7.034384160848356 0 0 0
3449 27 1 16.61331831298089 14.57660431757036 8.27312514476687 0 0 0
3450 27 1 17.651181713876856 13.904280240445981 9.189230811464082 0 0 0
3451 27 1 18.04324519832566 14.702150888031387 10.44437688129779 0 0 0
3666 27 1 11.880157518833276 13.852278126172193 0.5850975828567415 0 0 0
3667 27 1 12.225902034632568 14.63917984029964 1.8871584223712952 0 0 0
3668 27 1 13.234803068883439 13.953986206315458 2.8559621687793286 0 0 0
3669 28 1 17.278796100767302 16.177359409632437 2.4370105195702347 0 0 0
2759 20 1 11.442660693134508 1.0611938755745534 0.12978874891072043 0 0 1
2326 17 1 18.967146460419762 25.361781397205768 17.69953037103992 0 0 0
3892 28 1 17.025799937499393 17.017146314331043 1.1830068424202531 0 0 0
3893 13 1 14.009232692645455 19.054619633939435 4.176970877822254 0 0 0
3894 13 1 15.128076530815203 18.545094294086503 5.080784727933091 0 0 0
3895 13 1 15.204317669218199 19.12750040286049 6.511350556753954 0 0 0
3896 13 1 16.23954064408937 18.32678145382629 7.351284269764292 0 0 0
3897 13 1 16.59722417505659 18.982733142969604 8.671656344490641 0 0 0
3898 13 1 17.835499529020687 18.432138355503334 9.393013761638297 0 0 0
3899 13 1 18.029986941009234 18.795464659180936 10.87680792327281 0 0 0
3927 13 1 12.632947043249654 18.521395069457224 0.48785683656078405 0 0 0
3928 13 1 12.629001343819402 18.88990814242461 1.9622623962450376 0 0 0
3929 13 1 13.896876127606419 18.502062037343425 2.7572769017086025 0 0 0
3967 30 1 16.946475866707683 20.61267659951116 1.9570149679589337 0 0 0
3968 30 1 18.292810581944888 20.75052669467763 2.7168805376978122 0 0 0
8302 11 1 3.095882935633432 23.61789153589402 15.001925157175297 0 0 0
4190 30 1 17.063656591302003 20.884148390007873 0.43915540068185294 0 0 0
4191 22 1 13.590283981291313 22.898356035674848 3.889495893671671 0 0 0
4192 22 1 14.989241000629246 22.96393498343565 4.493515147585352 0 0 0
4193 22 1 15.041868836980802 22.94637679351325 5.999196676192376 0 0 0
4194 22 1 16.43646094614814 22.987470709392337 6.639147400309259 0 0 0
4195 22 1 16.409563426570994 22.773482127296855 8.158435484827555 0 0 0
4196 22 1 17.798850222411186 23.01959913175479 8.829356457697827 0 0 0
4197 22 1 17.800931078500383 22.7196541822239 10.303004916655352 0 0 0
4225 22 1 12.024441637489371 22.961400963109803 0.26691441501770535 0 0 0
4226 22 1 12.196847559760565 22.98311475878351 1.78301409621513 0 0 0
4227 22 1 13.6316141150782 22.924305789907425 2.344943044384899 0 0 0
4265 33 1 16.976398835122353 24.808683636366496 1.901346219188718 0 0 0
4266 33 1 18.131590119420018 25.46139697831327 2.6582508480230636 0 0 0
8016 43 1 7.256530911399584 19.256549503315256 23.160975938496843 0 0 0
4488 33 1 16.834003095631328 25.26321752742899 0.43499211290145673 0 0 0
4734 35 1 1.8466388617724405 3.6125353469475288 19.520258878152106 0 0 0
4735 35 1 1.892861748195307 3.4174699750137374 21.034901924669544 0 0 0
4736 35 1 3.118693717495477 3.8348984709431546 21.79373701107896 0 0 0
4737 35 1 3.0920177193632856 3.6526668940044797 23.299705449998996 0 0 0
8466 64 1 8.392445638634953 25.48095000588326 17.201593050936204 0 0 0
5182 12 1 1.4015888763165572 7.829838678960734 18.968478648734276 0 0 0
5183 12 1 1.322816397662924 7.686163289459238 20.483217111384008 0 0 0
5184 12 1 2.6284367704562723 8.094195960679789 21.1918195724443 0 0 0
5185 12 1 2.639508834296671 8.040115325018277 22.692012902404645 0 0 0
8299 11 1 0.45151005714106063 23.01706755163973 12.222615089071546 0 0 0
5630 56 1 0.9641050989018498 12.169092020613249 19.049380348504503 0 0 0
5631 56 1 1.3984509552071884 11.738794223621301 20.498940476387197 0 0 0
5632 56 1 2.5153630620172516 12.526267403781489 21.17312566109169 0 0 0
5633 56 1 2.598296503243706 12.18756772711996 22.671063822751925 0 0 0
7075 30 1 0.47898551613531526 4.801717431831149 10.695039235421483 0 0 0
5938 44 1 1.3944507353965836 16.582890853833106 19.323999350988046 0 0 0
5939 44 1 1.4050642614594853 16.197461580807666 20.761209092075312 0 0 0
5940 44 1 2.6277877645302072 16.70246941574364 21.54081002742038 0 0 0
5941 44 1 2.739104054080414 16.360123208995553 23.02739396084839 0 0 0
8465 64 1 8.346733870471294 25.75989075521332 15.72430876888319 0 0 0
6239 48 1 1.1797777106464529 21.08879659518161 19.592537954155972 0 0 0
6240 48 1 1.7286483459369837 20.41063358798619 20.82159539307119 0 0 0
6241 48 1 2.5922551162232588 21.319022572867183 21.676860704440344 0 0 0
6242 48 1 2.9585472387070784 20.713156561036158 23.023372290684176 0 0 0
8305 11 1 4.47393012787674 23.129670041794228 18.611362805814988 0 0 0
6537 39 1 0.9556580845764533 25.821012326813555 19.40561643857033 0 0 0
6538 39 1 1.5881846399727266 25.047762912925887 20.544490382174843 0 0 0
6539 39 1 1.9936704900407585 25.99481250357156 21.686365273136975 0 0 0
6540 39 1 2.8968421835921516 25.368682106539396 22.682531765742215 0 0 0
8464 64 1 7.076584330640164 25.441876132466163 14.985221801649168 0 0 0
8304 11 1 4.458568287175291 23.5546987846983 17.15997205141714 0 0 0
6751 62 1 1.0179737563835678 0.8304584446113263 12.556945620446031 0 0 0
6752 62 1 2.2749784505895816 0.46977725095476475 13.326963018699304 0 0 0
6753 62 1 2.2138874506766895 0.9840485721468286 14.76724819241666 0 0 0
6754 62 1 3.4322383200484574 0.736360612557208 15.709399836539347 0 0 0
6755 62 1 3.38894311978736 1.1817266697160775 17.135998577160915 0 0 0
6756 62 1 4.745985894232996 1.057330505325733 17.81387073556443 0 0 0
6757 62 1 4.810115130301607 1.063716904281688 19.36186836997044 0 0 0
6758 62 1 6.233414961946791 0.9526646069803338 19.954787070523064 0 0 0
6759 62 1 6.330865132155427 1.002796111299999 21.44348841444874 0 0 0
6760 62 1 7.732968090999969 0.7858402738406992 22.019587409640213 0 0 0
6761 62 1 7.778029318309665 1.1351323440571581 23.51642284545347 0 0 0
8457 64 1 2.859080726145064 25.897504365097262 7.118773469138208 0 0 0
6852 53 1 1.2570643181935446 3.427737760944043 4.746986423211724 0 0 0
6853 53 1 1.367895260742812 2.917049441548738 6.199551400451324 0 0 0
6854 53 1 2.5901060586019424 3.5850344814503528 6.9317501883828765 0 0 0
6855 53 1 2.8270616089294096 2.955709589757766 8.30375909513733 0 0 0
6856 53 1 4.040279199227429 3.442820396405929 9.114499858057005 0 0 0
6857 53 1 4.10532577574973 2.954722881165275 10.550311765208734 0 0 0
6858 53 1 5.459779245425495 3.240700487753751 11.265755049429101 0 0 0
6859 53 1 5.602454306835556 2.9214215309920153 12.745456514252757 0 0 0
6860 53 1 6.913253307686958 3.389921230927024 13.421195661722306 0 0 0
6861 53 1 7.04544923715022 3.0032780904980885 14.932441451227477 0 0 0
6862 53 1 8.426252743909066 3.2276670257225812 15.497073725082284 0 0 0
6863 53 1 8.720793621564711 2.9204353738687145 16.96743177954644 0 0 0
6864 53 1 10.001087815925665 3.457285012353279 17.6501459968328 0 0 0
6865 53 1 10.141811053926876 3.0309367194171806 19.1090570105629 0 0 0
6866 53 1 11.480527277554256 3.305410220391462 19.7788160107092 0 0 0
6867 53 1 11.530713626173483 3.2209826810135485 21.31344482681255 0 0 0
6868 53 1 12.81226958352146 3.505530864733303 21.999518504524183 0 0 0
6869 53 1 12.831791768917165 3.1929077532440853 23.487795814698295 0 0 0
8303 11 1 3.109591060612992 23.273122680079116 16.48854346409488 0 0 0
8458 64 1 3.158627820682238 25.218520397109916 8.469502525904485 0 0 0
7076 30 1 0.7839880819036582 5.349555281039916 12.110083658963323 0 0 0
7077 30 1 1.8952193557461645 4.730396349642936 13.002249021019933 0 0 0
7078 30 1 2.2106848467340403 5.495766431375634 14.305975168921782 0 0 0
7079 30 1 3.2398871244504717 4.828616591132831 15.217103926939151 0 0 0
7080 30 1 3.7419590240862157 5.523525385849159 16.47660878644104 0 0 0
7081 30 1 4.751706858079122 4.8358833911744785 17.360996880289314 0 0 0
7082 30 1 4.896489496525445 5.5964247832533625 18.65284886442407 0 0 0
7083 30 1 5.911113231939771 5.0574199607119965 19.681988233047225 0 0 0
7084 30 1 6.282171808205845 6.026550460782968 20.78650787661837 0 0 0
7085 30 1 7.204049955030444 5.362965437895402 21.74004246628902 0 0 0
7086 30 1 7.729612792019046 6.253465938044775 22.84487399480903 0 0 0
8463 64 1 7.100402790809895 25.89477791193198 13.507348042004276 0 0 0
7160 6 1 1.1237197011234688 8.024960947874696 4.64640487929077 0 0 0
7161 6 1 1.760620013501688 7.256292004274686 5.810136228702827 0 0 0
7162 6 1 2.6803220783341164 8.00847763239804 6.77336771686283 0 0 0
7163 6 1 3.0877172993600266 7.340241242893765 8.09709859918496 0 0 0
7164 6 1 4.012865186869991 8.176382993715318 8.991133738434305 0 0 0
7165 6 1 4.440391014729219 7.401073260997232 10.236685995492538 0 0 0
7166 6 1 5.5100674847020175 8.039667453943473 11.112440261471535 0 0 0
7167 6 1 5.7105058422740935 7.356288710379006 12.408151061771461 0 0 0
7168 6 1 6.821525661229688 8.040472723800788 13.232966904602135 0 0 0
7169 6 1 7.045464985153414 7.33078405964246 14.589033611718921 0 0 0