LAMMPS data file via write_data, version 23 Jun 2022, timestep = 11112117

8487 atoms
2 atom types
8471 bonds
3 bond types
8455 angles
3 angle types
8439 dihedrals
3 dihedral types

0 36.89775039 xlo xhi
0 26.67072 ylo yhi
25.88658457834947 210.8650198216618 zlo zhi
0 5.81982434295097 0 xy xz yz

Masses

1 14
2 15

Pair Coeffs # lj/cut/omp

1 0.0914 3.95
2 0.1947 3.75

Bond Coeffs # harmonic/omp

1 449.5 1.53
2 449.5 1.53
3 449.5 1.53

Angle Coeffs # harmonic/omp

1 62.0967 114
2 62.0967 114
3 62.0967 114

Dihedral Coeffs # opls/omp

1 1.411 -0.271 3.145 0
2 1.411 -0.271 3.145 0
3 1.411 -0.271 3.145 0

Atoms # molecular

1 58 1 12.880061175138213 1.395931010134237 38.3453911553558 0 0 0
2 58 1 13.61631108435554 2.292407337541721 39.312482797710985 0 0 0
3 58 1 14.29244547765062 1.516505641949959 40.38446476630587 0 0 0
1292 12 1 17.293817042812886 16.997973767470096 38.68319389227764 0 0 0
235 36 1 18.856065963603236 4.325684412600385 41.488275161754444 0 0 0
6500 54 1 5.979946867995014 6.514218722888931 42.74249106965985 1 0 0
1294 12 1 18.883054697152655 17.112544441432284 40.57960771756016 0 0 0
7608 21 1 6.836910396011193 19.700400348912144 42.54840814181969 0 0 0
3452 27 1 16.72539652839703 14.582429296086152 32.18540405223814 0 0 0
6499 54 1 5.5126791199248695 5.813854890756889 41.418315656699235 1 0 0
1047 8 1 11.125614350177933 11.92704527359886 30.481674381525337 0 0 1
1722 13 1 6.846609865423919 18.786223691046825 30.979160989338098 0 0 1
215 2 1 4.905330371723832 1.2435267883597643 28.198778318752574 0 0 1
833 7 1 3.585841052449963 10.257315774865974 27.712547373804288 0 0 1
6959 17 1 1.682691383997377 10.89512565906331 36.99477531842004 0 0 0
7285 16 1 2.632729664056476 14.61887751472975 37.32326199851862 0 0 0
7602 21 1 2.4741745576144316 19.947476659467885 36.28072086525559 1 0 0
720 5 1 14.392911080442834 8.727034271096656 35.49643753618571 0 0 0
7841 62 1 8.918966458452788 21.34483167836119 38.95525350266154 0 0 0
221 58 1 9.336354942359652 1.0689298352700622 34.468992815965734 0 0 0
222 58 1 10.363322493655165 1.909085371200958 35.32003914584038 0 0 0
223 58 1 10.959929966430181 1.0956521936347772 36.47910869803386 0 0 0
224 58 1 11.924469275986787 2.0177651126162393 37.31153523461658 0 0 0
225 36 1 11.12390178329565 3.8588751875749123 31.42439299259669 0 0 0
226 36 1 12.202940709569223 3.2137242012136773 32.285088160233215 0 0 0
227 36 1 12.900320901392488 4.10724020606931 33.276685115364074 0 0 0
228 36 1 13.914742207473353 3.479805350819918 34.234746372168026 0 0 0
229 36 1 14.39898219182703 4.258607335432276 35.41781668172097 0 0 0
230 36 1 15.475524788080072 3.6643260158024464 36.284735087585815 0 0 0
7604 21 1 3.9822490219862394 19.844774495342193 38.41674117207164 1 0 0
4768 41 1 3.3323995235281716 4.149474365831463 44.25136616305703 0 0 0
5210 60 1 0.5324851868727668 8.138490957123503 41.51975595559034 1 0 0
2115 34 1 13.873675596304508 1.177545462901206 28.053392192770193 0 0 0
3672 29 1 17.42709526423199 17.163815833816443 26.63961070514485 0 0 0
219 58 1 7.678981072719465 1.0170951183269257 32.33277366542365 0 0 0
4213 28 1 16.949992874960675 23.85674152817349 32.07960214376287 0 0 0
791 6 1 5.164896978307634 10.08991147034229 29.585815607545122 0 0 0
1885 19 1 17.5229334106991 26.06986749994098 38.00743410915029 0 0 0
5694 46 1 1.7932021270904688 17.70293292194124 42.498881694483025 0 0 0
447 36 1 9.485374254331466 3.8680933454738033 29.505687972933387 0 0 0
448 36 1 10.47911813416922 3.068971356992844 30.285351183514106 0 0 0
449 37 1 14.53683946406413 6.795934342855198 42.245169195167655 0 0 0
450 37 1 15.024483128613442 5.815548976661118 43.287059422119356 0 0 0
5374 41 1 1.756956103552346 13.325418154726806 42.96282957251053 1 0 0
214 2 1 3.482729774779087 1.1677813290877441 27.8417865528707 0 0 1
8052 63 1 5.972217538491276 23.467470434217052 41.48610952812486 1 0 0
2563 25 1 15.53050680844653 6.567759874867096 31.80513170028349 0 0 0
768 6 1 15.781638510134705 10.131468699408451 43.55818906309419 0 0 0
2562 25 1 14.959383642967431 5.791172109198855 30.57091418294383 0 0 0
3671 29 1 16.05871203281128 16.89079686340877 26.052531905009676 0 0 0
1048 8 1 11.856330502646696 12.832135917606035 31.431562556468553 0 0 1
722 5 1 15.981766255036144 8.741045285264468 37.655076566829294 0 0 0
1720 13 1 4.837359736141909 19.077577144448174 29.226907924840468 0 0 1
6460 1 1 1.069524469358612 3.791338999989979 30.145434276995715 0 0 0
1057 9 1 18.606128513677156 12.31402064370046 40.982423104786506 0 0 0
1272 52 1 3.5824759257515173 15.242520434302083 28.01814858885109 0 0 1
8278 55 1 8.488938000014663 25.5608349310571 38.90538980632368 0 0 0
6728 9 1 1.4482749366931624 8.420052650422663 30.429913018219604 0 0 0
6737 9 1 8.188489404784036 7.75202597178386 39.25380453607812 0 0 0
668 37 1 10.940504644777354 5.675194920061021 37.031265594614766 0 0 0
669 37 1 12.073256408435483 6.408871994130818 37.75063855881636 0 0 0
670 37 1 12.397446984378819 5.787620437301834 39.074181951949946 0 0 0
671 37 1 13.277276225066174 6.713585835296245 39.87249144013663 0 0 0
672 37 1 13.695092007939044 5.994388075468521 41.193060113590704 0 0 0
2566 25 1 18.47978212205082 5.881620860559426 34.37401999107908 0 0 0
1509 14 1 15.275995297966228 19.813150857496208 42.00054406111813 0 0 0
7606 21 1 5.265578586000084 19.828740089301508 40.59813511996721 1 0 0
713 5 1 8.819086285070558 7.535919898484377 28.63898866796023 0 0 0
714 5 1 9.865928316774726 8.342688371028826 29.45298858697017 0 0 0
715 5 1 10.428208328262803 7.515395574043254 30.51455101067592 0 0 0
716 5 1 11.093751673058431 8.453842087188688 31.529203678678165 0 0 0
717 5 1 11.905514979317317 7.694556217094514 32.471758899401735 0 0 0
718 5 1 12.848187439445777 8.630547667010118 33.318431044833005 0 0 0
658 20 1 3.227013082812315 5.381334744089966 27.222515214935083 1 0 1
1291 12 1 16.224690333872672 17.77802431532065 37.86049269559436 0 0 0
445 36 1 7.730510548943176 4.078594429572162 27.42197111442087 0 0 0
8270 30 1 2.021799181297885 25.9012758600702 31.067275679720353 1 0 1
7286 16 1 3.5810856940291496 15.25497793006717 38.292084218134335 0 0 0
3903 32 1 12.083625330768038 18.83449115748658 26.353858348408846 0 0 0
3910 32 1 17.624291674216693 19.838452701315468 33.540662711863796 0 0 0
664 20 1 7.86892276893905 5.609409145997291 33.07773524366422 0 0 1
1814 17 1 15.909007775610492 23.767246905108227 42.63670502497692 0 0 0
761 6 1 10.891447577882133 10.795949499225713 36.13808802961758 0 0 0
762 6 1 11.197439632071783 10.815289823323864 37.627385156062324 0 0 0
763 6 1 12.561110214667417 11.220388023518344 38.1829673985827 0 0 0
764 6 1 13.111387259456887 10.395234727887583 39.40379817174005 0 0 0
765 6 1 14.069980740964722 11.154967052649251 40.33841473596673 0 0 0
766 6 1 14.172185228236803 10.536750199644043 41.757798020355864 0 0 0
767 6 1 15.465946573934357 11.049217124025244 42.392619651956764 0 0 0
3905 32 1 13.751864483438638 18.692663928371225 28.300145592422144 0 0 0
7287 16 1 4.032332295872062 14.397156668802786 39.506409392545834 0 0 0
8274 55 1 5.055147068642069 25.544403086592826 34.98474248055018 1 0 0
231 36 1 15.91106486966005 4.573188249216792 37.46063161565702 0 0 0
1293 12 1 18.00785799283391 17.915326757655883 39.575800816240054 0 0 0
1812 17 1 14.540270993201966 23.650780551411568 40.48402999409497 0 0 0
3447 27 1 12.598138133571931 15.228880093901903 27.2982641710975 0 0 0
7567 10 1 11.542549640709469 16.965697379345638 43.2949898911566 0 0 0
213 2 1 3.1802349240134657 0.9947649631951506 26.332906075295693 1 0 1
2116 34 1 14.347561113289316 2.021531452608738 29.214046205744477 0 0 0
792 6 1 6.610296762156576 10.277547856022256 30.183576652729545 0 0 0
793 6 1 6.5754649955764215 10.571421909327315 31.694841380004796 0 0 0
794 6 1 7.952060617380727 10.329264737032219 32.166048616006414 0 0 0
795 6 1 8.134679042591312 10.295861789422222 33.65576078789883 0 0 0
796 6 1 9.549383868061689 10.695791717696602 34.1605761941396 0 0 0
797 6 1 9.515656285875119 10.59329510657004 35.65295501118234 0 0 0
3448 27 1 13.781755384889617 14.602897003822456 28.053513733504406 0 0 0
3909 32 1 16.869603083779413 19.053250813505755 32.43810807413716 0 0 0
7566 10 1 10.586113848945066 17.902971977127567 42.55109683064705 0 0 0
232 36 1 17.05373819851039 3.886919865123472 38.15449378572072 0 0 0
1043 8 1 7.954612335903495 12.14092753293429 26.445926015363717 1 0 1
218 58 1 6.510989816972251 1.7410061796725964 31.640038932302975 0 0 0
6958 17 1 0.8914479622872415 10.14649481285583 35.98325029982253 0 0 0
7075 58 1 3.629616770437096 12.175961004630855 33.4441271048756 0 0 0
7288 16 1 5.251873619603998 14.922514972821187 40.19262547162273 0 0 0
1270 52 1 1.882690551849504 15.328418546568114 26.125116346032552 1 0 1
217 2 1 6.034445501952579 1.0143698903718406 30.384062265766982 0 0 1
3220 24 1 14.728224516373357 10.924959825643471 29.367967509990613 0 0 0
1277 14 1 8.034506739494992 14.455431630749969 32.718630229354446 0 0 0
1054 9 1 16.68476392763337 13.340211193513683 37.6677997823648 0 0 0
1055 9 1 17.04051437355392 12.580651890476407 38.960233372437536 0 0 0
446 36 1 8.72340858677288 3.250726174268174 28.272616363282268 0 0 0
7284 16 1 2.106099598550211 15.566079913918182 36.23591980075052 1 0 0
7085 58 1 11.52868631025653 12.359544834195583 43.56961418190587 0 0 0
1059 14 1 12.275780641061052 14.764904914034144 38.97222774074859 0 0 0
1060 14 1 13.619258197471508 15.252569852352478 39.551943589711705 0 0 0
1061 14 1 13.921062470003218 14.891581137488865 41.04676074437333 0 0 0
1062 14 1 15.249887510499024 15.568073793760442 41.48215123575423 0 0 0
1063 14 1 15.586201320396071 14.869342404085357 42.80480586047992 0 0 0
4658 18 1 17.218224392622993 26.15645210146467 27.15151794671371 0 0 1
5693 46 1 0.9037259934836377 16.933087883814142 41.526778806181355 0 0 0
6961 17 1 3.16707362869049 10.880357694114956 38.974520065762874 0 0 0
8053 63 1 6.573649275956163 24.226283378046027 42.6271253280089 1 0 0
2999 24 1 16.382732035860233 10.253357073957323 32.90138202158057 0 0 0
1273 52 1 4.660768106958162 14.44187937064604 28.622635306138843 0 0 1
6348 54 1 1.4385240039702871 2.086680021530882 36.68001298085095 1 0 0
7562 10 1 7.872782093761333 17.757554318699402 38.224677927979606 0 0 0
4431 35 1 12.031315990299069 22.97481555755817 26.24048189223846 0 0 1
1046 8 1 10.405984461842237 12.78808928263275 29.367173903873095 0 0 1
5 58 1 15.765845592902139 1.494869424228143 42.35729180148117 0 0 0
8271 55 1 2.4971035328022118 26.508720453148552 32.3576904731515 1 0 0
3904 32 1 13.044942839550547 19.517119868219858 27.22829879584355 0 0 0
3234 19 1 17.81256441258869 12.461868362911375 28.061642977649097 0 0 0
1279 14 1 9.693466854717583 14.492753246905737 34.62874028029525 0 0 0
1280 14 1 10.452431093087041 15.36592330468172 35.58283219606982 0 0 0
1281 14 1 10.750836027233458 14.720451270251141 36.9108949277952 0 0 0
1282 14 1 11.944777773019636 15.352983387125333 37.57142420295743 0 0 0
1283 12 1 10.32325688645497 17.433523086178738 29.37004415033781 0 0 0
1284 12 1 10.820650965670962 16.681266663405868 30.60429968758956 0 0 0
1285 12 1 11.809024279696207 17.586889533014695 31.42221731172191 0 0 0
1286 12 1 12.412517194367608 16.867669560603723 32.63545113870079 0 0 0
1287 12 1 13.328835631739407 17.73791447429687 33.54746677448441 0 0 0
1288 12 1 14.085651286117027 16.901439062382448 34.633548811189684 0 0 0
1289 12 1 14.61006160124249 17.81313438459471 35.70227821704387 0 0 0
2561 25 1 13.954961622883587 6.531145484813684 29.74184366853394 0 0 0
7601 21 1 1.355660404396653 19.217370565118713 35.531152303222264 1 0 0
7084 58 1 11.131508289001035 12.97804303118828 42.24861960005499 0 0 0
1723 13 1 8.118846929676666 19.458334944803475 31.461203867707592 0 0 1
7289 16 1 5.571319029844911 14.310133878764532 41.5789926019589 0 0 0
6727 9 1 0.4623403844051945 7.595979088660049 29.542072083014915 0 0 0
8049 63 1 3.447443457549553 24.122528386621056 38.64196508634861 1 0 0
666 37 1 9.227856206921926 5.767584835107002 35.18511695687443 0 0 0
220 58 1 8.332965226640031 1.8693758193195953 33.55665154826036 0 0 0
6473 1 1 11.323553177838386 3.331882114865493 43.163765034403255 0 0 0
1506 12 1 9.083414431278975 16.717356674614003 28.768731350042895 0 0 0
3670 27 1 12.206324951150778 14.521577828907521 25.981847222269042 0 0 0
8048 63 1 2.9533303069926715 23.40256325828778 37.338832667913906 1 0 0
657 20 1 2.661418087328171 6.281728463965452 26.158201467543748 1 0 1
832 7 1 3.308777818851441 10.46438604855064 26.24072324592972 0 0 1
216 2 1 5.2977401148207335 1.941724810665721 29.493417149107046 0 0 1
1278 14 1 9.037593248908184 15.325830418248222 33.5193498710394 0 0 0
7603 21 1 2.7843945298720665 19.256920555652087 37.57843220680932 1 0 0
1884 19 1 16.38598505825441 0.051166509177610245 37.318015120504384 0 1 0
2565 25 1 17.315013210057863 6.62823381333042 33.67203741007121 0 0 0
6740 9 1 10.465082758673299 8.359509003135924 42.27875048271294 0 0 0
1801 16 1 12.09239007446905 22.290659282748308 31.65498732110057 0 0 0
4124 33 1 18.153829752286587 20.988253949698986 28.440900460919334 0 0 0
3001 24 1 17.89899224100055 10.417836651248017 35.12318568556759 0 0 0
2542 22 1 16.706965650827854 4.17942374545274 27.489597566158167 0 0 1
662 20 1 6.229587331722519 5.708225862889534 31.200900298236856 0 0 1
2102 19 1 11.452221800479595 25.91153716895215 31.5434206070392 0 0 0
1724 14 1 8.319168880467517 19.112942807864894 32.92254141965444 0 0 0
1725 14 1 9.379468943453828 19.77968681305477 33.714995179486436 0 0 0
1726 14 1 9.639795210067438 19.183891721823787 35.11415751392602 0 0 0
1727 14 1 10.843745053059584 19.733708024942928 35.90721560259707 0 0 0
1728 14 1 11.186422125304064 19.045459149966685 37.21343363976821 0 0 0
6349 54 1 2.276402682272726 1.2741747166674893 37.678224491704626 1 0 0
2541 22 1 16.56241219160647 3.5537485314586803 26.110326272059023 0 0 1
1768 16 1 15.036978799499739 22.23237781849149 35.76070830477045 0 0 0
1769 16 1 15.900619434253759 21.359626867750094 36.63506920605167 0 0 0
1770 16 1 16.90685744043043 22.227714175331005 37.47347271490061 0 0 0
4122 33 1 16.582609506017057 21.137211430523063 26.51290967262561 0 0 0
6354 54 1 6.003527338028261 1.8297130604372527 42.70560154883221 0 0 0
834 7 1 5.013212136091615 10.256294376947277 28.17602594389647 0 0 1
1050 8 1 13.346357697811673 13.081022423479132 33.60555091614155 0 0 1
1275 52 1 6.289547996881534 14.455275177783008 30.757819681481827 0 0 1
6351 54 1 4.028232838720211 1.292082770027743 39.39072781092803 1 0 0
6474 1 1 12.22478900605112 4.12130722270163 44.207765440539006 0 0 0
2101 19 1 11.334327553232812 26.014733024869262 30.03819020229248 0 0 0
725 5 1 17.83252547587953 8.033008313294761 41.046923393386834 0 0 0
1719 13 1 4.3122198848465665 19.920128141404362 28.06833647583942 1 0 1
7844 62 1 11.279914252497157 22.420312925344945 41.687403190399245 0 0 0
1879 19 1 12.87483786968825 26.04705739056298 32.04311587624074 0 0 0
1802 16 1 12.735303558710655 21.47110566972346 32.798836945239955 0 0 0
1803 16 1 13.605087958132573 22.233437899647402 33.76275054469753 0 0 0
1804 16 1 14.264361789773929 21.4122569397294 34.79883617962163 0 0 0
1805 17 1 9.167187377701062 24.14900427731896 33.867293233091154 0 0 0
1806 17 1 10.001715713850514 23.316497664745224 34.787221626103175 0 0 0
1807 17 1 10.728101437818893 24.219673789976405 35.799847530533235 0 0 0
1808 17 1 11.405268684460115 23.250913023576633 36.91690680678718 0 0 0
1809 17 1 11.988298594282574 24.263461987258378 37.86516374648407 0 0 0
1049 8 1 12.465677776936081 12.212442749407021 32.68426297799403 0 0 1
3219 45 1 13.839072353111995 10.062971287549157 28.509104852485894 0 0 1
1044 8 1 8.678222772897632 12.954664865538946 27.555807598757816 0 0 1
1045 8 1 9.457961357246232 12.036645282737231 28.471272461993056 0 0 1
7081 58 1 8.308488374775601 12.360015697503572 39.51126305985012 0 0 0
1051 8 1 13.928360441420402 12.43397021297613 34.89862383165967 0 0 1
7843 62 1 10.48954570496003 21.530832955887615 40.85554820944864 0 0 0
7290 16 1 6.537435181005195 15.07496048546676 42.43028057674596 0 0 0
8047 63 1 1.7985441926634493 24.06487638708956 36.66389379470449 1 0 0
6493 53 1 0.8604403112791381 6.111759638884151 35.561216044936664 1 0 1
2777 29 1 17.432027693647363 7.827474348134578 28.537443023740458 0 0 0
1505 12 1 8.81075598729012 17.012531325806023 27.31061642895042 0 0 0
8046 63 1 1.265879586869497 23.602813769878182 35.32449017997769 1 0 0
1837 17 1 5.3512920281042575 23.281603957191948 28.511809622002843 0 0 0
1838 17 1 6.23739897378862 24.05825714414976 29.555093656983466 0 0 0
1839 17 1 6.900375393565514 23.41909879519181 30.73538908147963 0 0 0
1840 17 1 7.633669250389356 24.27630383584748 31.74143175308999 0 0 0
1841 17 1 8.40093019102918 23.44511050820332 32.80879846038446 0 0 0
6495 54 1 2.639099376626023 5.998867987272704 37.27494221080611 1 0 0
1880 19 1 12.942319144839336 26.10322912767288 33.60137540004959 0 0 0
1881 19 1 14.356208722812049 26.013766730018407 34.10704452007712 0 0 0
1882 19 1 14.535724359905723 26.500376457765448 35.56159054930743 0 0 0
1883 19 1 15.91031935788517 25.96183592195744 36.1090684173951 0 0 0
1271 52 1 3.025992128111495 14.537993715479255 26.767175430950733 1 0 1
4214 28 1 18.05196367021236 24.57213745367187 32.80337834611115 0 0 0
7609 21 1 7.156147121005086 19.106246222703508 43.97364006253465 0 0 0
3221 24 1 15.377704054260382 10.076745137492928 30.514482244244345 0 0 0
7073 58 1 2.018010439457285 12.017936483090107 31.39695409254712 0 0 0
1721 13 1 6.135710866088884 19.610293456889654 29.908827700954152 0 0 1
7559 10 1 5.588142638395707 16.85040811542052 35.00764543646466 0 0 0
8279 55 1 9.380711930937993 26.385642662816387 39.74733618771433 0 0 0
667 37 1 10.265280578576332 6.633839874629245 35.979034639121025 0 0 0
3233 19 1 17.30051711522565 13.380755981086246 26.908386569092574 0 0 0
6471 1 1 10.055124495028986 3.2405281006262134 41.09305667942826 0 0 0
4659 37 1 18.44905547369502 25.584218814032305 27.759486551926635 0 0 0
2114 34 1 12.806842955852407 1.975918059229805 27.381636223536894 0 0 0
663 20 1 7.16543249696519 6.4650916920095955 32.09253250547586 0 0 1
8051 63 1 4.9336095998223115 24.220954626599386 40.65313354486405 1 0 0
7845 62 1 11.89191544293807 21.707247037816984 42.945999692916985 0 0 0
7076 58 1 4.453361171392021 13.164639663172219 34.27880105190217 0 0 0
6496 54 1 3.13198734549798 6.659330441278264 38.53564738770618 1 0 0
6962 17 1 3.9007298429708577 10.217994662816063 40.055629370645306 0 0 0
6501 54 1 7.009061259513888 5.655331100604381 43.41231652063099 1 0 0
1886 19 1 17.78066496036481 0.0649197445935895 39.34867513347595 0 1 0
7557 10 1 4.128467795040782 16.89490148758088 32.85855315968309 1 0 0
2098 19 1 8.404764454021883 26.389556282561923 27.471060431897126 0 0 0
6739 9 1 9.730827904942636 7.458908531087479 41.25036020295172 0 0 0
1836 17 1 4.626433057003464 24.153328147461593 27.520628185476593 0 0 0
8280 55 1 9.891489409600275 25.587174637170207 41.011779377636365 0 0 0
7837 62 1 5.679791460117782 20.784414426228427 34.87768339603026 0 0 0
7556 10 1 2.967784105816081 17.61295279503299 32.13421192989028 1 0 0
8276 55 1 6.954932482780846 25.392563808421208 36.78442276419049 0 0 0
6 58 1 16.478042880351058 2.308336894596276 43.44627534515405 0 0 0
6964 17 1 5.765014718018421 10.297837720116375 41.73758365710781 0 0 0
8275 55 1 6.241590343587819 26.176917566422624 35.74430196023732 0 0 0
6470 1 1 9.037696864329579 4.002081781600458 40.20265515636309 0 0 0
3218 45 1 13.506937576834467 10.927220605503495 27.336564507032964 0 0 1
8273 55 1 4.316337143560652 26.574659307612354 34.12843955543795 1 0 0
4767 41 1 2.1060547472336717 3.4664661289608323 43.52243438084835 0 0 0
7500 57 1 0.8031159719342635 17.505745388617218 30.572993629279512 1 0 1
7283 16 1 1.0847730434843237 14.759866902967401 35.46502919852794 1 0 0
7836 62 1 5.044523350215878 21.658700362156843 33.72323846651496 0 0 0
7835 62 1 3.9745088248822076 21.112944165513724 32.81982151684961 0 0 0
1772 16 1 18.58520323698399 22.33569288456807 39.351317293740244 0 0 0
7607 21 1 5.685002040537606 19.00901495326377 41.7839162958458 0 0 0
3673 29 1 17.68954856703178 17.054959012206925 28.165523681696783 0 0 0
2564 25 1 16.70733096787951 5.873413257085974 32.49186781465546 0 0 0
3451 27 1 15.539209766172759 15.226940814742393 31.56937368900181 0 0 0
3908 32 1 16.126253679048617 19.807786842409104 31.302046617316535 0 0 0
6494 53 1 1.2487133229916747 6.535953192364378 36.92868785765857 1 0 1
2099 19 1 9.684172448626873 25.778494550003586 28.11076844839728 0 0 0
7833 62 1 2.2448127441033785 21.44774048008036 30.99679100640293 0 0 0
4215 28 1 18.408682979136124 23.896169584066193 34.11188251142332 0 0 0
1730 14 1 12.586623177896865 18.969811565318565 39.3962430658499 0 0 0
2118 34 1 15.90072491097683 2.0724166300907707 31.283209207705887 0 0 0
7834 62 1 3.527121165441328 21.95047645152304 31.672590567275968 0 0 0
6350 54 1 3.232542612282275 2.134330413775534 38.45767053885243 1 0 0
1813 17 1 15.01544557022169 24.511334614465206 41.63707691797318 0 0 0
6347 54 1 0.648573407169136 1.3678606781986646 35.581622865994184 1 0 0
661 20 1 5.642382493737988 6.475535679342436 30.021454590122318 1 0 1
3449 27 1 13.96033824131812 15.15468629864112 29.50408969363382 0 0 0
3450 27 1 15.161495893387224 14.610383449356524 30.25083084424091 0 0 0
8268 30 1 0.5400482990004506 25.807625466789993 29.07689944663655 1 0 1
8272 55 1 3.604806036020909 25.781595276122513 33.077812524813986 1 0 0
8281 55 1 10.746030037344706 26.38779913574133 41.981507484999455 0 0 0
7565 10 1 9.877961645983559 17.17102015876199 41.380147914646884 0 0 0
5212 60 1 2.4924308035544582 7.93782938613523 43.26599239547092 0 0 0
1835 17 1 3.7355608083887706 23.308281693500803 26.631293063587034 0 0 0
3217 45 1 12.563263110558882 10.232929473449191 26.36194469110141 0 0 1
719 5 1 13.500250178454309 7.9271196379531155 34.558252807553686 0 0 0
7840 62 1 8.199784250960601 21.937366554705868 37.805377618615935 0 0 0
6497 54 1 4.1521313834427085 5.828055776564964 39.32256608429405 1 0 0
4212 28 1 16.355107559442203 24.403120069634404 30.78041524645511 0 0 0
2559 25 1 12.335149746360276 6.258344444314668 27.734062672263068 0 0 0
7839 62 1 7.163994278916002 20.997869052569897 37.07463471799083 0 0 0
1764 15 1 8.015380751560253 20.685397669572023 26.92598348436897 0 0 1
6129 39 1 1.6060942259082989 25.71127118661857 41.704609186308296 1 0 0
444 36 1 7.212592634653583 3.3432154811150347 26.200601659576932 0 0 0
2113 34 1 12.263281810199846 1.176522810075089 26.160483050899355 0 0 0
7078 58 1 6.236236084341156 13.33708837850652 36.15588346781879 0 0 0
6960 17 1 2.2100173396107716 9.963286611089586 38.16912360868144 0 0 0
1274 52 1 5.539877030223925 15.212613477203337 29.641504019099628 0 0 1
6472 1 1 10.679514628182039 4.107952191804451 42.10853892609155 0 0 0
7074 58 1 3.014202408510522 12.880121557072947 32.23291442853153 0 0 0
7072 58 1 1.3866078575287175 12.872622438555476 30.23218671812713 0 0 0
6130 39 1 2.024727074353563 26.391498019448413 42.95810001842746 1 0 0
6469 1 1 8.45102245968738 3.1865617972949476 39.08556925080478 0 0 0
6741 9 1 10.95378431697783 7.770191004983489 43.61114765467953 0 0 0
2776 29 1 17.321255522694823 8.192901646164803 27.01156621870916 0 0 0
7083 58 1 9.895491600221302 12.312316505029916 41.59432066631441 0 0 0
1053 8 1 15.385269782179973 12.674790062955264 37.026496023479865 0 0 1
5988 48 1 1.7136706832787258 21.918447236326383 42.60727345910014 0 0 0
7605 21 1 4.273229719318188 19.108702658469113 39.6841815885299 1 0 0
1276 14 1 6.949202743399586 15.261712009232946 31.847595531497483 0 0 0
4434 28 1 14.51521059957787 24.12163584582169 29.071574795082828 0 0 0
4435 28 1 15.22573636349934 23.494221837040495 30.244789337380837 0 0 0
1056 9 1 18.225782094283193 13.188428299800808 39.71005947040185 0 0 0
7079 58 1 6.8649351534116185 12.495295325610247 37.29519133304381 0 0 0
7080 58 1 7.8707970919506165 13.21122550216482 38.27550085395042 0 0 0
7558 10 1 4.777625147400636 17.71720241352151 34.028565396744426 1 0 0
660 20 1 4.784058613829118 5.427876341378838 29.270205190374227 1 0 1
2100 19 1 9.897007650725659 26.23035884740487 29.57420120652372 0 0 0
7563 10 1 8.109805005667363 17.102312627043283 39.55812980288954 0 0 0
7600 21 1 0.5587875637217334 20.06288260816429 34.562517867601954 1 0 0
724 5 1 17.52395412114117 8.610608853625463 39.6628797771416 0 0 0
3906 32 1 14.494797075224293 19.6061299520229 29.332832600411766 0 0 0
1718 13 1 3.2529864007879903 19.095953648731275 27.340179325451533 1 0 1
8277 55 1 7.776154949366 26.249570843868185 37.77458511385101 0 0 0
1811 17 1 13.85884685837943 24.58541301969676 39.593871458031394 0 0 0
7560 10 1 6.415000927686301 17.62719590693567 36.02830048818947 0 0 0
5989 48 1 2.9784082704890804 21.218484272051672 43.22716890530996 0 0 0
659 20 1 4.221287653267057 6.1294345093877105 28.0582168266744 1 0 1
1052 8 1 15.074630921909067 13.168661294334608 35.603479353799486 0 0 1
1290 12 1 15.618364634183385 17.062463934999787 36.63787282152235 0 0 0
7564 10 1 9.05985503146704 17.97774712915595 40.398423793306726 0 0 0
665 20 1 9.0118248763198 6.345920525721216 33.79687356026342 0 0 1
4 58 1 14.965817250877347 2.4301082884926095 41.451619815579456 0 0 0
1766 15 1 9.649852142614378 21.06422530987645 28.777163416767053 0 0 1
3222 24 1 16.12166697180625 10.879046450632531 31.52302405846553 0 0 0
6966 17 1 7.417614224945208 10.026583825852697 43.76569428427887 0 0 0
7077 58 1 5.099486583872027 12.622100212101305 35.53098363685766 0 0 0
1767 15 1 10.293911154506945 22.103222694068528 29.68584773256798 0 0 1
6965 17 1 6.603371458623773 10.910067210395287 42.80232657579393 0 0 0
6498 54 1 4.497723816505138 6.606263962171698 40.59904515199646 1 0 0
1729 14 1 12.252327249450065 19.65836801850706 38.1078217063433 0 0 0
3453 27 1 17.318224564554015 15.396142914860016 33.40450649175105 0 0 0
1504 12 1 7.409984093306653 16.57659527322999 26.810081566017665 0 0 0
3000 24 1 17.544155454825084 10.925131404538677 33.67999381294676 0 0 0
7838 62 1 6.809957486623649 21.500958550550937 35.65782328568276 0 0 0
8282 55 1 11.014678273908595 25.75670839813729 43.35229076487137 0 0 0
6352 54 1 4.752285729169315 2.127615758137504 40.4801218033528 0 0 0
6353 54 1 5.716469017790023 1.239653416616983 41.30139406985729 0 0 0
7071 58 1 0.5457069078178944 12.109808497745316 29.16911017809494 0 0 0
1815 17 1 16.44903514156581 24.58827378620221 43.81553650432514 0 0 0
7842 62 1 9.723322344171612 22.31629241834446 39.812418747563704 0 0 0
2560 25 1 13.479136212315437 5.601978042125875 28.511704321679478 0 0 0
7082 58 1 9.507338445982018 12.960579833273064 40.29572848377926 0 0 0
5211 60 1 1.4719885474821042 8.806645596403321 42.453349876629204 1 0 0
7561 10 1 7.037434441379101 16.845158196816175 37.255721869194716 0 0 0
1771 16 1 17.807772153346267 21.47098239585576 38.484319276916146 0 0 0
1810 17 1 13.371702761701389 23.76725561025622 38.44363528929685 0 0 0
1510 14 1 15.690633917547563 19.03791465622238 43.23647568838868 0 0 0
2544 22 1 18.25603816005724 4.235272251551875 29.604531962944044 0 0 1
1507 14 1 13.77177501669744 19.672064643387024 40.01940188009992 0 0 0
3454 27 1 18.602408028621362 14.771231004016828 34.004982760700024 0 0 0
2119 34 1 16.93780293459956 1.4222155833281689 32.16479670679798 0 0 0
712 5 1 8.406989554062305 8.331378244300602 27.368750335314058 0 0 0
6461 1 1 1.9651047030647764 3.1401327469437854 31.20240826146198 0 0 0
6462 1 1 2.4831377792707054 4.143895393141664 32.23229460557144 0 0 0
6463 1 1 3.497254565592912 3.547321406600034 33.17291712994256 0 0 0
6464 1 1 4.076020402781623 4.284788697935175 34.396940129894745 0 0 0
6465 1 1 5.021564568937804 3.375927805694235 35.12062808413129 0 0 0
6466 1 1 5.678321201079145 3.926940696455048 36.33986355447301 0 0 0
6467 1 1 6.74811538376803 3.2059816043613774 37.12375401821259 0 0 0
6468 1 1 7.2759810594413565 3.926388552810101 38.388618977279066 0 0 0
1508 14 1 14.226008238855703 19.00095305162023 41.27334288363885 0 0 0
6963 17 1 4.970088230100023 11.156400773406821 40.762127012514966 0 0 0
1717 13 1 2.5600170490807512 19.758239103387382 26.14968985848748 1 0 1
1765 15 1 8.93294102176415 21.66996517257452 27.604003857473707 0 0 1
233 36 1 17.116093320839685 4.259295805407949 39.5969327085102 0 0 0
4433 28 1 13.54854657413079 23.217344944022607 28.274236006354197 0 0 0
721 5 1 15.020690367002688 7.9262367076187425 36.67123745597272 0 0 0
6738 9 1 9.26550573538905 8.386377028152145 40.138934181376214 0 0 0
4432 35 1 12.929800301910808 23.900638627794994 27.03187741735112 0 0 1
3907 32 1 15.249555068644423 18.901176114095595 30.446774309643075 0 0 0
8054 63 1 7.646632927003536 23.4386837949012 43.37608959611201 1 0 0
2543 22 1 18.023469235412232 3.679477625237264 28.189277843252746 0 0 1
7832 62 1 1.7842902354501928 22.173620272821527 29.73101006204942 0 0 0
2117 34 1 15.473451312688214 1.3420522101311914 30.03669152133988 0 0 0
451 37 1 16.159274548995302 6.485381987918057 43.93692142873016 0 0 0
7086 58 1 12.668738650804771 13.097984769431479 44.37510284271691 0 0 0
7499 57 1 0.30713593728666805 16.8394613106206 29.28636292131883 1 0 1
723 5 1 16.421759725152324 7.918422104628134 38.863233727243646 0 0 0
8050 63 1 4.762340065080569 23.53355072259876 39.30336845416256 1 0 0
7291 16 1 7.125082578234253 14.50583211137732 43.68263336936435 0 0 0
1800 16 1 11.071970716374759 21.421945673424577 30.864475649173443 0 0 0
7831 62 1 0.7548043550609939 21.317619802960415 29.002756801626937 0 0 0
6355 54 1 6.930299561323672 0.9754431361501815 43.633730015440975 0 0 0
2558 25 1 11.883612897774626 5.41770269330597 26.55456275865481 0 0 0
6729 9 1 2.070683827183877 7.457481618768573 31.45832268333711 0 0 0
6730 9 1 3.018877665225527 8.296965906848996 32.242857717843826 0 0 0
6731 9 1 3.714218835510731 7.62585194174104 33.41741672613143 0 0 0
6732 9 1 4.558827980840879 8.59830260406129 34.268557323396465 0 0 0
6733 9 1 5.193676172887458 7.845401550650674 35.42063090339752 0 0 0