LAMMPS data file via write_data, version 23 Jun 2022, timestep = 11111117

9706 atoms
2 atom types
9690 bonds
3 bond types
9674 angles
3 angle types
9658 dihedrals
3 dihedral types

0 36.89775039 xlo xhi
0 26.67072 ylo yhi
15.888978007083495 220.86262639289833 zlo zhi
0 6.4489172857926675 0 xy xz yz

Masses

1 14
2 15

Pair Coeffs # lj/cut/omp

1 0.0914 3.95
2 0.1947 3.75

Bond Coeffs # harmonic/omp

1 449.5 1.53
2 449.5 1.53
3 449.5 1.53

Angle Coeffs # harmonic/omp

1 62.0967 114
2 62.0967 114
3 62.0967 114

Dihedral Coeffs # opls/omp

1 1.411 -0.271 3.145 0
2 1.411 -0.271 3.145 0
3 1.411 -0.271 3.145 0

Atoms # molecular

1 3 1 8.881856178820446 1.5941283024824278 24.356510796053154 0 0 0
2 3 1 9.5143721499522 2.2888053550953327 25.58385678916892 0 0 0
3 3 1 10.427326195228295 1.4366812456368199 26.496819299406347 0 0 0
4 3 1 11.07817401098577 2.2855990517539375 27.540435020277293 0 0 0
5 3 1 12.134134091854218 1.5893549611490694 28.31477644162726 0 0 0
6 3 1 12.633512484022864 2.260688144518421 29.56521236711763 0 0 0
7 3 1 13.727123972352695 1.4859541896165354 30.26503554025571 0 0 0
8 3 1 14.219648428069805 2.138940542763671 31.53759730461215 0 0 0
9 3 1 15.378563766142687 1.4133107775832399 32.24192683650335 0 0 0
10 3 1 15.764843639245532 2.026171847824926 33.64266325833075 0 0 0
11 3 1 16.758334701293066 1.184245020414656 34.44503722870395 0 0 0
2119 16 1 16.407830160457465 23.393455821478945 34.48899285542825 0 0 0
601 6 1 2.238998543751389 5.982477289089898 16.217882341878433 0 0 0
379 36 1 8.71711919401025 3.750292973556944 19.256721188202686 0 0 0
8194 55 1 1.9611910956003784 11.078694442652656 28.002577232326153 0 0 0
6760 47 1 0.8618188281132237 22.204962898889583 32.10628640318744 1 0 0
8802 58 1 7.320230368025184 16.873250318273012 28.523914393713575 0 0 0
7750 23 1 6.859925714568994 6.872080851552996 33.76197476259422 0 0 0
220 3 1 4.876453254690908 2.0787372941291475 19.478699438461085 0 0 0
221 3 1 5.42781842540819 1.2239722254807273 20.628368541143615 0 0 0
222 3 1 6.2833073530051005 2.0814392309960708 21.54907281154821 0 0 0
223 3 1 7.19718670883011 1.3013367698063365 22.460827147828198 0 0 0
224 3 1 7.709653380471441 2.1640211016249595 23.570633663177833 0 0 0
304 36 1 12.125124142113048 4.213100646076515 23.12162575500109 0 0 0
305 36 1 13.392870994042816 3.6768243829249654 23.723469741735688 0 0 0
306 36 1 13.725972447395991 4.356025344554739 25.025812026152856 0 0 0
307 36 1 14.786704559323558 3.5154151258506325 25.73008118983317 0 0 0
308 36 1 15.168952262018484 4.159180252575482 27.080718155519865 0 0 0
309 36 1 16.259951957973037 3.4358568386372124 27.867349177632725 0 0 0
310 36 1 16.704746893479367 4.356193703839573 28.970139070332763 0 0 0
9022 59 1 1.0352473373143345 19.017301572188433 26.62918210707413 0 0 0
7147 49 1 1.7741344766078186 25.809783905679993 33.48486507956382 0 0 0
4307 30 1 12.576679668792869 18.73292861382958 18.08129463385215 0 0 1
4311 33 1 16.27221744490954 21.956713006763806 16.818892540468244 0 0 0
303 4 1 7.045049949318731 3.791643923662515 17.2017959229242 0 0 1
1878 14 1 4.044440043055725 19.260058835063944 17.99426062695842 0 0 0
8197 55 1 4.5328832201720735 10.333750197940157 30.868734211355125 0 0 0
7969 54 1 0.194828543198782 8.797353277539381 19.374954901457105 0 0 0
380 36 1 10.21348801870428 3.734614788170142 19.71306434218111 0 0 0
381 36 1 10.363890576637319 4.048677377966198 21.178043563057464 0 0 0
382 36 1 11.815789214997675 3.731078892618074 21.708822658224793 0 0 0
383 6 1 7.307196719715796 6.067462195631341 22.060908006585233 0 0 0
384 6 1 7.584496422998925 6.58067735767829 23.470024575215817 0 0 0
385 6 1 8.849872282635385 6.022553542149278 24.13606924369426 0 0 0
386 6 1 9.15004432403315 6.541176080047158 25.54373770049051 0 0 0
387 6 1 10.365176312149394 5.897771585659607 26.15661898920625 0 0 0
388 6 1 10.715564742187603 6.3932158376745205 27.538480400281806 0 0 0
389 6 1 12.05773428491519 5.984467208443027 28.152687144105 0 0 0
390 6 1 12.322759411008263 6.830646231736059 29.33415760384964 0 0 0
391 6 1 13.440487880694135 6.21958530129278 30.154571613608987 0 0 0
392 6 1 13.945480875285332 7.082365669927803 31.281515314413834 0 0 0
393 6 1 14.74884925435252 6.180760891183957 32.23949689884089 0 0 0
394 6 1 15.660726362436531 6.7416840561381495 33.320372883678594 0 0 0
8801 58 1 6.262278401222358 17.69667423220361 27.819565424966267 0 0 0
9636 64 1 0.9504416087405358 25.79335864032835 20.430240875232165 0 0 0
9345 63 1 4.443547027174221 23.155131999913632 30.798226735565798 0 0 0
3861 28 1 15.746628564140254 14.492899250835002 22.071941641160976 0 0 1
8490 5 1 2.448532313063551 12.655642346211602 22.35617568667706 0 0 0
3164 22 1 12.654292743236406 5.7340228410142435 18.254746951804048 0 0 0
602 6 1 2.6938462267632306 6.707553243047985 17.50992096232359 0 0 0
603 6 1 3.9550132914500615 6.142471608268762 18.10274543234354 0 0 0
604 6 1 4.150848553309316 6.512536205247973 19.5723482572079 0 0 0
605 6 1 5.5242799305202475 6.010437375400344 20.1133984792702 0 0 0
606 6 1 5.911263727700259 6.5298684101116296 21.49588250566129 0 0 0
607 59 1 10.708485447661483 8.631055131815788 21.311043634500024 0 0 0
608 59 1 11.472910688204326 7.810224625926251 22.37331702887276 0 0 0
609 59 1 12.253932020248483 8.725466637895428 23.297601878911536 0 0 0
610 59 1 13.247625080158144 7.96779180363289 24.189691267654723 0 0 0
611 59 1 13.891405442001265 8.831552522719507 25.296807621572622 0 0 0
612 59 1 14.922072438388872 8.01409479149574 26.097277951558123 0 0 0
613 59 1 15.291249782468782 8.81226416998662 27.35709724804032 0 0 0
614 59 1 16.509690498702813 8.21771449111512 28.057517753911355 0 0 0
5934 54 1 2.238234795227895 13.443550889891222 34.114571964332924 0 0 0
8202 55 1 8.07876325487931 11.383100989236292 36.05358318805233 0 0 0
3327 26 1 17.891494846180578 10.663258306277724 25.636874485378847 0 0 0
9341 63 1 1.1934753693013365 23.483239577162703 27.082608591528473 0 0 0
9030 59 1 7.443697116970268 18.86480050071473 34.53848227695499 0 0 0
395 6 1 16.15425275752275 5.865025021248324 34.42911246825335 0 0 0
9251 61 1 0.8951709580969038 21.154042908951368 20.358910638937722 0 0 0
4306 30 1 11.735194193441204 19.590851505801528 17.10475882647522 0 0 1
829 59 1 9.321125456025515 8.593103160206947 19.32824429147596 0 0 0
830 59 1 9.895567999817748 7.709886046379764 20.423970138112523 0 0 0
831 9 1 7.1030092135738485 10.74220179495979 23.679612027869933 0 0 0
832 9 1 8.556567784454531 10.527182731582313 24.20725446640461 0 0 0
833 9 1 8.7197680931144 10.512223006233434 25.66685944664296 0 0 0
834 9 1 10.13249308577006 10.729550924071484 26.126512158213703 0 0 0
835 9 1 10.212635877731136 10.785322561496447 27.62180143996295 0 0 0
836 9 1 11.628883925967079 10.618845011198125 28.02708247840271 0 0 0
837 9 1 11.885806408281397 10.664334849561456 29.580231695793152 0 0 0
838 9 1 13.374787640581893 10.736212615237097 30.04221190158669 0 0 0
839 9 1 13.529933592468952 11.087449698063331 31.51578887485676 0 0 0
840 9 1 14.80968446189472 10.522488679600398 32.199383991787585 0 0 0
841 9 1 15.103571836063466 10.967661256595097 33.63794066523324 0 0 0
3326 26 1 17.860904489009542 10.362796286622604 24.14572469109401 0 0 0
6761 47 1 1.1264630586131874 21.58544896601054 33.46041768976319 1 0 0
4308 31 1 13.326018152271825 19.67186476560402 19.014614206920154 0 0 0
3855 28 1 10.787951274037594 14.6948990689921 16.154131040274876 0 0 1
7150 49 1 4.552808987476805 26.427233897109563 36.22653967614639 0 0 0
2105 33 1 9.870360535506546 21.1688440802159 19.955429612059767 0 0 0
3859 28 1 14.062048908895273 14.729496831595103 20.108054876533547 0 0 1
905 9 1 3.842268038051306 10.263257970241273 18.14477520783655 0 0 0
906 9 1 4.328345487032172 10.93359739804296 19.45638585749489 0 0 0
907 9 1 5.533822679365329 10.348219113702617 20.19120135665907 0 0 0
908 9 1 5.696483135272354 10.896996588232374 21.63556090443906 0 0 0
909 9 1 6.900284472174194 10.225918266224607 22.32610844641765 0 0 0
989 9 1 13.14037609048186 12.287267029597817 24.348842165862706 0 0 0
990 9 1 13.801483997356216 13.121911368664957 25.431581681791336 0 0 0
991 9 1 14.509290721662948 12.37403313973604 26.51598035118907 0 0 0
992 9 1 15.041919659988622 13.214957557527647 27.627172795399673 0 0 0
993 9 1 16.03351426838569 12.503000962145812 28.509940159591167 0 0 0
994 9 1 16.72125586280756 13.398744853155934 29.505563773706115 0 0 0
903 9 1 2.23683217145772 10.502078120997622 16.224028644894396 0 0 0
1434 11 1 2.1735699767693344 14.612701860839428 16.10024559713146 0 0 0
1655 12 1 6.681925626839887 17.03031183780426 16.01027605704278 0 0 1
7752 23 1 8.463926240449217 6.751600913367826 35.69792694334721 0 0 0
2118 16 1 15.880438931653291 24.225942508746733 33.35198743205491 0 0 0
4703 36 1 17.876860395086553 26.4907807187876 18.53592341657891 0 0 0
9643 64 1 6.615485251338364 26.388686587550122 27.298710190515237 0 0 0
4611 34 1 12.018312980824614 24.10222903615774 17.03056366773626 0 0 0
1209 9 1 9.754350450390092 12.309607458113227 20.584076361898035 0 0 0
1210 9 1 10.879856811394593 13.099417563859975 21.296002781532476 0 0 0
1211 9 1 11.420750674959013 12.21181824194271 22.37965859069591 0 0 0
1212 9 1 12.321196263251727 13.005970642613292 23.33077733601233 0 0 0
1213 11 1 4.504054713082522 15.294114065672511 19.01824155650158 0 0 0
1214 11 1 5.098491322864648 14.563634597063642 20.31137694917679 0 0 0
1215 11 1 6.057082388980405 15.351043642944186 21.204490991490573 0 0 0
1216 11 1 6.660653303064868 14.560881177861567 22.322061851213988 0 0 0
1217 11 1 7.53171156972446 15.442322868816934 23.262919724584766 0 0 0
1218 11 1 8.474937384299688 14.511313713984773 24.101723363659744 0 0 0
1219 11 1 8.924616306938027 15.20752194911492 25.411407856445777 0 0 0
1220 11 1 9.895802540849814 14.427365157913139 26.212039782651217 0 0 0
1221 11 1 10.49668923967143 15.191347940851868 27.407515410521306 0 0 0
1222 11 1 11.646057716094258 14.566157653257113 28.228916866770895 0 0 0
1223 11 1 12.016458589795256 15.442233728024693 29.357649354775376 0 0 0
1224 11 1 13.00418878427911 14.789930120466241 30.330184325028764 0 0 0
1225 11 1 13.835598045603158 15.640301172438017 31.34262870974354 0 0 0
1880 14 1 5.341610856274145 18.92133880799368 20.109066057973358 0 0 0
9026 59 1 4.2613597080223995 19.033811591795335 30.668214030823158 0 0 0
3479 24 1 11.292276415360417 10.373942118414618 15.931614662115857 0 0 1
8195 55 1 3.0987957543171802 10.38216665785887 28.776274559110977 0 0 0
9647 64 1 9.844870514942206 26.502912797550184 31.27743688556422 0 0 0
7518 34 1 0.49203481622674505 4.33894198014213 19.365282610796005 0 0 0
7743 23 1 1.664354840101522 5.907539190400882 26.626211858870185 1 0 0
3858 28 1 13.546034276623017 15.427430707621303 18.88265311776512 0 0 1
7751 23 1 7.786374887582603 5.955693887855722 34.564253879685964 0 0 0
1444 13 1 16.767408199930085 17.68737674633172 29.391648536586302 0 0 0
1437 13 1 11.194515287036504 16.73533486143407 22.189354974254595 0 0 0
1438 13 1 11.920264148241555 17.522294788206246 23.255080882870523 0 0 0
1439 13 1 12.724218518004868 16.690294114786976 24.244769927573124 0 0 0
1440 13 1 13.332483991214811 17.58440349809664 25.366207116475778 0 0 0
1441 13 1 14.208485060803289 16.89420757386227 26.43556287468084 0 0 0
1442 13 1 15.075749550268322 17.889133724487007 27.279945680264955 0 0 0
1443 13 1 15.744990348792719 17.010950955855417 28.442288936130556 0 0 0
5933 54 1 1.5157732499249363 12.664092460513467 33.01090140587725 1 0 0
312 36 1 18.286779159532127 4.378409434378805 31.109628604542277 0 0 0
8577 3 1 2.1273855637904906 14.97787374718487 28.95650536309718 0 0 0
1435 11 1 3.3106292906136106 15.282971445489514 16.828579871413574 0 0 0
2326 16 1 3.0020810213733657 24.328020739327755 17.4941433521156 0 0 0
5483 40 1 2.316311471322898 8.991423177448283 33.95849698202832 1 0 0
7747 23 1 4.365353922965028 5.7879052205852215 30.85037000257069 0 0 0
1657 13 1 8.165340548873628 17.015904614259323 18.09677066059667 0 0 0
1658 13 1 8.693450883802857 17.723891595537577 19.383675481179452 0 0 0
1659 13 1 9.520779113206466 16.832234320064057 20.31222073705881 0 0 0
1660 13 1 10.550110644012738 17.567350733127114 21.079297832707244 0 0 0
1661 14 1 9.031417932106873 19.709916465423646 25.411654284491203 0 0 0
1662 14 1 10.191570812282336 18.992502172696653 26.17127762734939 0 0 0
1663 14 1 10.812005929159325 19.931897709534212 27.22798023958496 0 0 0
1664 14 1 11.62446078185226 19.13646758196643 28.15209124896041 0 0 0
1665 14 1 12.247977490090644 20.09181074349596 29.15724360333026 0 0 0
1666 14 1 13.054536389501061 19.398282803187087 30.156969216980276 0 0 0
1667 14 1 13.80857606462174 20.15159598776026 31.282734252671677 0 0 0
1668 14 1 14.405640322289713 19.160117780314216 32.33869240324475 0 0 0
1669 14 1 15.520524239966159 19.779536826817832 33.15297312413115 0 0 0
1670 14 1 16.066079784202373 19.078422027901837 34.408678332515564 0 0 0
1671 14 1 17.310820899025906 19.721683792458546 34.96197521140956 0 0 0
4702 36 1 16.72500020122501 25.72919492832327 17.893927079609956 0 0 0
7298 63 1 1.5479079184857472 1.156270673776236 27.048962831705367 0 0 0
8196 55 1 3.3987881412363317 11.073916112862618 30.08941637998628 0 0 0
217 2 1 2.638324127834247 1.3438321431095646 16.285884608094065 0 0 1
4083 2 1 15.68884730964548 16.81556107726189 16.042119361809338 0 0 1
9255 61 1 3.95958794596197 21.28037611532196 24.429896376597632 0 0 0
7970 54 1 0.8475259371008566 7.841806458653886 20.346982348070288 0 0 0
2103 60 1 8.414790497749847 21.33109973526389 17.853217264578433 0 0 1
1881 14 1 5.670390517256205 19.62533105741301 21.41917244711526 0 0 0
1882 14 1 6.778334040660479 19.055707094690753 22.240840577725354 0 0 0
1883 14 1 7.294742608821857 19.871015498105184 23.418474988890736 0 0 0
1884 14 1 8.581445195956649 19.2664876059564 24.045436772980437 0 0 0
1885 33 1 12.798248340545141 21.265827944390114 23.983329849262468 0 0 0
1886 33 1 13.398787493720098 22.016641088942144 25.17135165388613 0 0 0
1887 33 1 14.520255628924357 21.264185674014854 25.84264703294501 0 0 0
1888 33 1 14.855496147508456 21.972027899261143 27.135153588435713 0 0 0
1889 33 1 16.06662681702768 21.407427644458547 27.83851709180818 0 0 0
1890 33 1 16.530727083902818 21.85733743013556 29.207939564337195 0 0 0
9340 63 1 0.6012754588905858 24.178084125561423 25.84811821450386 0 0 0
5101 1 1 3.380400534980139 3.3728207598712823 35.14375080519399 0 0 0
9650 64 1 12.194192936199725 25.66343727693221 34.388367184201144 0 0 0
4086 26 1 17.922371653455954 17.641129907436873 19.09368346901952 0 0 0
218 3 1 3.344614452322023 2.234658504764448 17.27877659803253 0 0 0
9252 61 1 1.4125810308556819 22.05307443092561 21.484578892219066 0 0 0
9637 64 1 2.051909186492064 26.526249697940333 21.20386808700226 0 0 0
2720 20 1 17.45494474745465 3.5218360359451477 17.74380288819048 0 0 0
219 3 1 4.172588041867753 1.407377644227109 18.29634397097423 0 0 0
2106 33 1 10.419505962604436 21.97655155108766 21.059892309161825 0 0 0
2107 33 1 11.28521145411015 21.099051144101292 21.96173257117005 0 0 0
2108 33 1 11.614754168953297 21.902019706434906 23.20247824467188 0 0 0
2109 16 1 8.517001509946287 23.345241045503048 24.53539743995725 0 0 0
2110 16 1 9.423305800249205 24.254020594397982 25.350379826277226 0 0 0
2111 16 1 10.058627671385032 23.45774588215426 26.49633567511149 0 0 0
2112 16 1 11.012391072700373 24.278671707483788 27.274432815069844 0 0 0
2113 16 1 11.553743577401798 23.6805001929173 28.61299370350087 0 0 0
2114 16 1 12.785095250297834 24.416860581337353 29.21433920237746 0 0 0
2115 16 1 13.198192781537912 23.604521206851615 30.448617800637436 0 0 0
2116 16 1 14.369258364388473 24.220300688704114 31.256441640730614 0 0 0
2117 16 1 14.872795601229768 23.446981920339734 32.48799896808596 0 0 0
7301 63 1 4.143089112283548 2.048444972555173 29.783769838761884 0 0 0
8488 5 1 0.8908866012909299 12.657036550531384 20.300735934620903 0 0 0
7305 63 1 7.120747931804804 2.1001025514070553 33.89369734575372 0 0 0
7534 34 1 12.790290038008008 4.06847983189287 35.65385836682201 0 0 0
4314 33 1 18.458393536174587 21.250677957313215 19.878739764652302 0 0 0
8489 5 1 1.4724782811290789 13.428955764054152 21.49852964799545 0 0 0
3704 40 1 17.790071651976117 12.952468185752037 17.45294183254989 0 0 0
7745 23 1 3.0454128576787474 5.735080682948397 28.611734813745567 1 0 0
2327 16 1 3.658027137192703 23.49437237580985 18.567169088742354 0 0 0
2328 16 1 4.772205803257879 24.23652009578453 19.251225291400736 0 0 0
2329 16 1 5.307345230020993 23.41597480899858 20.416301226988743 0 0 0
2330 16 1 6.398100179499824 24.082305696355697 21.25183638436802 0 0 0
2331 16 1 6.929915001083641 23.376324454834716 22.485979211224976 0 0 0
2332 16 1 8.199717844752698 23.944697341647313 23.20705709799535 0 0 0
2333 18 1 11.230920963221871 25.72835329161632 22.323416367218954 0 0 0
2334 18 1 12.17724707907544 26.50332873838497 23.200616959338443 0 0 0
2335 18 1 13.077988575602669 25.609028891980937 24.029511590154655 0 0 0
2336 18 1 13.832482556528833 26.50022018311735 25.021471699863273 0 0 0
2337 18 1 14.748688932002349 25.648886321559306 25.951952408439595 0 0 0
2338 18 1 15.476460714902853 26.51786544075735 26.941494681573126 0 0 0
2339 18 1 16.274067476249222 25.616608512733922 27.965213796219572 0 0 0
2340 18 1 16.84195778631592 26.463950393650745 29.12236260590688 0 0 0
616 59 1 18.076810286026056 8.068340776304092 30.126361867359883 0 0 0
5935 54 1 2.94959697017006 12.538083753160192 35.10135572156669 0 0 0
7300 63 1 3.2076512566872952 1.2512672911310931 28.909634595033964 0 0 0
3862 28 1 16.618703451540192 15.213663697887363 23.093722175494555 0 0 1
7971 54 1 1.6110121912618118 8.739146108364737 21.27489692493505 0 0 0
9349 63 1 7.811627430781103 23.67723533057941 34.67899499489295 0 0 0
3856 28 1 11.947528627146747 15.423396734199864 16.853565593517803 0 0 1
2554 18 1 9.016038078697294 0.012562513666570798 19.13447213677226 0 1 0
2555 18 1 9.692260659919821 25.935312052932012 20.240432885262152 0 0 0
2556 18 1 10.564321227233515 0.011942576857919312 21.267153894904727 0 1 0
2557 64 1 13.729300148000046 2.035557642533177 19.063730130557047 0 0 0
2558 64 1 14.483282797372379 1.2167523492016328 20.12646438163271 0 0 0
2559 64 1 15.408604215647374 2.0673089357935948 20.94919954007498 0 0 0
2560 64 1 16.165628195891564 1.2395529611739926 21.960838919094616 0 0 0
4701 36 1 16.252232022771008 26.28986704309572 16.56128164270177 0 0 0
7985 54 1 12.259725565129125 8.708692589191585 35.54668938469385 0 0 0
8581 3 1 5.411479064191969 15.060301442573685 32.91650182962063 0 0 0
8503 5 1 12.549977614377081 13.292584494782611 35.54563024807207 0 0 0
2636 64 1 12.341261875063616 2.0959986644273285 16.98586015952397 0 0 0
2637 64 1 13.113676991657536 1.2075909294182494 17.995150911766725 0 0 0
3163 22 1 11.779853171801008 6.535569073912466 17.268005896049104 0 0 0
1892 33 1 17.77714415613013 21.745539177294983 31.3394398715469 0 0 0
1227 11 1 15.229816624855577 15.543556013849482 33.48716430230193 0 0 0
9342 63 1 2.2448579607827486 24.24472211091779 27.90416471402947 0 0 0
2941 22 1 13.610598113759604 6.580047699427708 19.106258773019157 0 0 0
2942 22 1 14.574124778982368 5.76923514007525 19.962013078257563 0 0 0
2943 22 1 15.333176611478592 6.657599646774231 20.994016060157534 0 0 0
2944 22 1 16.367999199649724 5.851995544158138 21.77261328837414 0 0 0
2945 22 1 16.902836320115327 6.705574783465 22.878144309897344 0 0 0
2718 20 1 15.61241524442893 3.5731366029875637 15.948927737352928 0 0 0
9027 59 1 4.624874602328953 19.754869136084537 31.97020535798218 0 0 0
827 59 1 7.624751748153318 8.70030550276274 17.452298533494506 0 0 0
2721 20 1 18.37852525987853 4.338562288955206 18.58702949314276 0 0 0
7146 49 1 1.46393910232382 26.379989104499405 32.06467606910495 0 0 0
1436 11 1 3.5039336325795327 14.54519856535551 18.17762634686931 0 0 0
7304 63 1 6.579146280742809 1.3355286122739467 32.627881665802136 0 0 0
8798 58 1 4.323413200208305 17.001326881560804 24.574701255643163 0 0 0
9348 63 1 7.1222061980797795 24.349698224409053 33.57252638779009 0 0 0
3323 26 1 15.067064133760269 11.023607677483907 21.237752581161306 0 0 0
3324 26 1 16.146394254620052 10.380605774378392 22.04349272370173 0 0 0
3325 26 1 16.510288082691332 10.753810231365867 23.514028424750194 0 0 0
9024 59 1 2.4322855625470865 18.82768131315654 28.88384898898431 0 0 0
3481 40 1 17.862882870808495 13.099746935750563 18.96789510777677 0 0 0
5481 40 1 0.6202212074888162 8.930739472053972 32.022552213980404 1 0 0
1206 39 1 7.702806409722153 13.000203597724887 17.38748954507306 0 0 1
2341 18 1 17.731605414057974 25.699798378980084 30.114256332889717 0 0 0
3400 26 1 13.511786868006922 10.846126415801027 19.32226815453291 0 0 0
3401 26 1 14.818463036630614 10.41171588496726 19.83582249849954 0 0 0
4700 35 1 10.99758084541002 23.359791693738302 16.150304504709478 0 0 1
3860 28 1 15.163512115195589 15.413636910042259 20.93639211403377 0 0 1
2102 60 1 7.125171599565855 21.8739530539393 17.262268078027397 0 0 1
9347 63 1 6.110882270163858 23.41505758869629 32.80856447406059 0 0 0
9344 63 1 3.7030537133426678 24.057828706831156 29.93248144932606 0 0 0
8501 5 1 10.944231552441709 13.5038141162717 33.54473732484715 0 0 0
5936 54 1 3.847971502243531 13.376318900292063 36.0129123607178 0 0 0
7148 49 1 3.0631808967527157 26.356908843880884 34.12071067298231 0 0 0
8198 55 1 5.128551432424366 11.186182239420493 31.969159004691527 0 0 0
8809 58 1 12.7315959527589 17.58522771183321 35.63588390622664 0 0 0
9649 64 1 11.199829915208666 26.461157467450054 33.479317467300476 0 0 0
7746 23 1 3.6054079244425137 6.615235613952119 29.79037101267427 0 0 0
9031 59 1 8.168229936767377 19.720734572998392 35.48728382974549 0 0 0
7744 23 1 1.8927197339928725 6.534324180089407 28.020922702322235 1 0 0
7520 34 1 1.9580326815459952 4.159610263548136 21.45102441227307 0 0 0
9254 61 1 3.0581327449311564 22.11166832140064 23.474928098703963 0 0 0
9638 64 1 2.5589826757170955 25.629398348386577 22.373672561594642 0 0 0
3857 28 1 12.347588808790473 14.803829739896235 18.12996296639455 0 0 1
4087 31 1 15.584040493796506 18.9487251417391 22.104311266810043 0 0 0
4088 31 1 16.476304498208794 19.742774525018678 23.10063377431323 0 0 0
4089 31 1 17.200747624846187 18.864287790346825 24.163770296928433 0 0 0
8192 55 1 0.35848364674873806 10.961659851188202 26.042255150759075 1 0 0
826 59 1 6.689679587424489 7.948146028266649 16.536558931410745 0 0 0
8794 58 1 1.3142295416805783 17.07589320575885 20.419838932918573 1 0 0
9029 59 1 6.416267167492463 19.86950549584411 33.861866225105175 0 0 0
828 59 1 8.282331023078639 7.846891166768927 18.50264904390101 0 0 0
4309 31 1 13.987658237420705 18.962088698955547 20.226336334924298 0 0 0
4310 31 1 14.800462448282891 19.845200639528585 21.18122757578164 0 0 0
8806 58 1 10.32996255503002 16.751062674394408 32.71144418059783 0 0 0
9639 64 1 3.589795295642257 26.39970416000093 23.236874703339208 0 0 0
3166 23 1 16.951782275809844 8.159206512100605 17.620023286948687 0 0 0
904 9 1 2.7311526208450334 11.066852266674125 17.512061824095923 0 0 0
4535 34 1 14.131300512657246 23.745448852149373 20.436910394386118 0 0 0
4536 34 1 15.21172589664432 24.445472942223077 21.166950562606953 0 0 0
4537 34 1 15.988768548388151 23.531535366178836 22.120849685852594 0 0 0
4538 34 1 17.084334989543724 24.178161726860782 22.86040511661672 0 0 0
2552 18 1 7.764414398099736 0.06100859829958538 16.85035450156908 0 1 0
7296 63 1 0.3495599095106859 1.2139724277813777 24.823809044115322 1 0 0
8805 58 1 9.351694174524685 17.51067421024436 31.772572561340752 0 0 0
9346 63 1 5.163827287710921 24.000066561845905 31.80681608392415 0 0 0
4612 34 1 12.68939156523583 23.43482201211743 18.32624983226999 0 0 0
4613 34 1 13.413891423312844 24.379071398780482 19.21655498290186 0 0 0
2553 18 1 8.367707361181122 25.862939069441456 18.032597223885844 0 0 0
4539 34 1 17.602246817993365 23.387717671664753 23.983908147407135 0 0 0
378 36 1 8.50157288350157 3.4897190339045303 17.773923058316836 0 0 0
9343 63 1 2.79549959616541 23.326425340786496 28.974874410120144 0 0 0
9262 61 1 9.596927292660197 22.023480587135285 31.438016160742528 0 0 0
12 3 1 17.193502569974882 1.7969824702112522 35.79835620988909 0 0 0
396 6 1 17.22140199257066 6.5827502909931646 35.21710086913747 0 0 0
9265 61 1 11.770244910967515 21.04118071564054 34.63939240499994 0 0 0
7307 63 1 8.325372148682334 2.0211560106698623 36.08777033152275 0 0 0
9261 61 1 8.570345047897419 21.331693304228658 30.534091496314865 0 0 0
9260 61 1 8.090660298967428 22.086126834163345 29.41211125659568 0 0 0
8576 3 1 1.8636532121625045 15.467270819689443 27.53137556006358 0 0 0
5102 1 1 4.125288831858671 4.211435258300769 36.13970924644477 0 0 0
7303 63 1 5.6190272642059975 2.1185979790316845 31.818618591576897 0 0 0
8584 3 1 8.326714968523529 15.431451236865295 35.48507841583469 0 0 0
2947 22 1 18.718702277892064 6.628649621727391 24.819170077083463 0 0 0
1879 14 1 4.418082854587088 19.89536380671099 19.341774860774162 0 0 0
9264 61 1 11.02188469029812 21.838772729392307 33.55918791073001 0 0 0
995 9 1 17.59941906356712 12.612483000859026 30.498183951682098 0 0 0
5098 1 1 1.1114909325364604 4.195998313544848 32.110121726766266 1 0 0
5099 1 1 1.8511266735479 3.330353965597366 33.10497499351007 1 0 0
996 9 1 18.434759147245234 13.394490272080384 31.464052799892624 0 0 0
8578 3 1 3.355098353454024 15.593759073149423 29.60388737113466 0 0 0
8799 58 1 4.831832369814951 17.95589034427142 25.602764912888766 0 0 0
9259 61 1 7.165503493616767 21.27035297490263 28.46618625736867 0 0 0
6764 47 1 4.284395574208289 21.875502850232678 35.79415940572201 0 0 0
9651 64 1 12.862105481272348 26.488016692533687 35.50908545404348 0 0 0
4090 31 1 18.17688256408256 19.727020031943198 25.014920058658877 0 0 0
9646 64 1 9.06542705982562 25.678165390473858 30.32367271600092 0 0 0
4312 33 1 16.85266927621395 21.256948921625895 18.033224859791734 0 0 0
7302 63 1 4.987763035929662 1.241129352300541 30.7917531170812 0 0 0
9640 64 1 3.9099250606397926 25.739711401491373 24.637000642413486 0 0 0
6763 47 1 2.890895750174122 21.43553911331591 35.375308260243955 1 0 0
4084 2 1 16.37090462804753 17.62584108913266 17.133673416176553 0 0 1
6384 56 1 1.943229086760227 17.759351754694716 34.57485672160401 0 0 0
1228 11 1 16.079028109263398 14.637879295844362 34.42186421955917 0 0 0
9025 59 1 3.19781191173154 19.72435955409498 29.808504872318906 0 0 0
1207 39 1 8.053378995121934 12.239239900423765 18.63498636450532 0 0 1
2104 33 1 8.722235839336262 21.89602175973712 19.26074506417465 0 0 0
1226 11 1 14.606406819381387 14.767180195201252 32.317272645238646 0 0 0
9253 61 1 2.0984839300751466 21.298459685633304 22.609014966887607 0 0 0
7521 34 1 2.664664213075548 3.3552475427886357 22.50597150874244 0 0 0
7306 63 1 8.024879897161911 1.2473160269189814 34.80510004119752 0 0 0
4313 33 1 17.968520631294567 22.00277819310449 18.65986206281375 0 0 0
1445 13 1 17.59347078607398 16.819280822041637 30.34161321015632 0 0 0
6383 56 1 1.5089040614796219 16.908313679079665 33.34932745200478 0 0 0
2562 64 1 17.980213297555988 1.4366797960121824 23.662330013368134 0 0 0
2719 20 1 16.627360587219137 4.356715206608097 16.816603599124765 0 0 0
8795 58 1 1.36794018490359 17.27050811716225 21.9863648710345 1 0 0
8574 3 1 0.3105709696930759 15.450016707905254 25.525057816722942 1 0 0
5484 40 1 3.136314430202143 8.19343700901798 34.98567355261493 1 0 0
7522 34 1 3.646342844313354 4.138721453630803 23.332157485151903 0 0 0
7523 34 1 4.148145627315839 3.4140986374196154 24.56858926231463 0 0 0
7524 34 1 5.0254806746284855 4.196773740483087 25.55799410890674 0 0 0
7525 34 1 5.696634249355218 3.406693612041796 26.677154003007225 0 0 0
7526 34 1 6.481139990865884 4.3183076732968395 27.732700030930964 0 0 0
7527 34 1 7.257346519472504 3.44885580281785 28.69999537418757 0 0 0
7528 34 1 8.256445866797344 4.312584831465483 29.49732409001159 0 0 0
7529 34 1 8.983824351254343 3.394783239686089 30.48135642019951 0 0 0
7530 34 1 9.682561696755329 4.205001450301253 31.60158149455979 0 0 0
7531 34 1 10.665564169388396 3.431978169071605 32.5071708158945 0 0 0
7532 34 1 11.253312833920216 4.212061307610109 33.69288348217435 0 0 0
7533 34 1 12.218657630961182 3.33435699443782 34.43732299951188 0 0 0
2120 16 1 17.507421671034834 24.047434853445175 35.23789389042477 0 0 0
9648 64 1 10.684256646436587 25.74338694760477 32.278566967700876 0 0 0
8804 58 1 8.910841887173126 16.697559909455173 30.521417097181935 0 0 0
7748 23 1 4.937271233591298 6.768509989196252 31.85606196924494 0 0 0
9652 64 1 13.778566417975963 25.625108248175064 36.36705306737795 0 0 0
3399 26 1 13.061472141889466 10.408204649107638 17.91176103259589 0 0 0
8193 55 1 1.6878012192204335 10.441538813174951 26.61688957024672 1 0 0
2342 18 1 18.43880466762081 26.646125469671702 31.082280313386022 0 0 0
842 9 1 16.340965501046576 10.35619651731626 34.36306102959912 0 0 0
4540 34 1 18.499840036558854 24.209179769311532 24.95470519418857 0 0 0
3703 25 1 16.301738144497754 12.973948269709366 17.010913722213573 0 0 1
5482 40 1 1.671807208560585 8.20926674450761 32.820793872579664 1 0 0
615 59 1 16.91067421093321 8.755203353867365 29.415693354093662 0 0 0
7983 54 1 10.974460997029897 8.736312499682505 33.39730032612289 0 0 0
7984 54 1 11.888932781190963 7.913325780859818 34.3110984044788 0 0 0
9644 64 1 7.1284888938776225 25.64178576479506 28.500134366138703 0 0 0
9641 64 1 4.835740189660626 26.474656095494684 25.57867632310427 0 0 0
7749 23 1 5.954601719680465 6.069615596926369 32.79202492006562 0 0 0
8797 58 1 3.1571267209582548 17.5550953206699 23.682533093938236 0 0 0
6762 47 1 2.4941899504228333 21.96430418515481 33.951518854577586 1 0 0
8579 3 1 3.6295149111693443 15.037932242367225 30.984880911439113 0 0 0
8800 58 1 5.879859697078407 17.27122620673328 26.361812860669843 0 0 0
7972 54 1 2.3327349655000233 7.824026439862908 22.284752195209798 0 0 0
7973 54 1 3.011506306644512 8.706514192919233 23.325241080147286 0 0 0