LAMMPS data file via write_data, version 29 Oct 2020, timestep = 32000000

10752 atoms
2 atom types
10752 bonds
3 bond types
10752 angles
3 angle types
10752 dihedrals
3 dihedral types

-1.4019591925125496e-01 3.1008115919238300e+01 xlo xhi
-1.2113307625790526e-01 2.6791853076229280e+01 ylo yhi
 9.3929845346062280e+00 2.7360637546481752e+02 zlo zhi

Masses

1 14
2 15

Pair Coeffs # lj/cut/omp

1 0.0914 3.95
2 0.1947 3.75

Bond Coeffs # harmonic/omp

1 449.5 1.53
2 449.5 1.53
3 449.5 1.53

Angle Coeffs # harmonic/omp

1 62.0967 114
2 62.0967 114
3 62.0967 114

Dihedral Coeffs # opls/omp

1 1.411 -0.271 3.145 0
2 1.411 -0.271 3.145 0
3 1.411 -0.271 3.145 0

Atoms # molecular

1             1             1       9.79279       14.8629       272.651
2            1            1      10.3286      15.6873       9.5623
3            1            1      9.21052      15.8878      10.5859
4            1            1      9.58086      16.6647      11.8662
5            1            1      8.58404      16.7333      12.9995
6            1            1      9.19772      17.4313      14.1445
7            1            1      8.34666       17.435      15.3955
8            1            1      8.93645      18.3017      16.4901
9            1            1       7.8985       18.281       17.572
10            1            1      8.24091      19.2374      18.6952
11            1            1      7.16463      19.1679      19.8064
12            1            1      7.55475      20.1796      20.8929
13            1            1      6.74785      19.9233      22.1575
14            1            1      7.17158       20.934      23.1656
15            1            1      6.45955       20.694      24.5054
16            1            1      6.69912      21.8147      25.4852
17            1            1       5.8845      21.6257       26.767
18            1            1      6.21271      22.7713      27.7474
19            1            1      5.62325       22.517       29.147
20            1            1      5.85458      23.6071      30.2211
21            1            1      4.93655      23.4789      31.4209
22            1            1       5.3093      24.4894      32.5367
23            1            1      4.39864      24.3873      33.8213
24            1            1      4.72341      25.1796      35.1144
25            1            1      3.85593      25.0194      36.3402
26            1            1       4.1393      26.1257      37.3337
27            1            1      3.24437      26.0139      38.5856
28            1            1      3.85441      26.7572      39.7707
29            1            1      2.85989       26.777      40.9657
30            1            1       3.1251     0.933219      42.0754
31            1            1      2.13595     0.738106      43.2448
32            1            1      2.40606      1.68621      44.3575
33            1            1      1.49603      1.47836      45.5928
34            1            1      1.77224      2.52515      46.6105
35            1            1     0.931583      2.16307      47.8675
36            1            1      1.25353      3.08723       49.021
37            1            1     0.433944      2.79192      50.2796
38            1            1     0.915498       3.6243      51.5498
39            1            1   -0.0827078      3.78867      52.6693
40            1            1     0.386229       4.5245      53.9254
41            1            1      30.4876      4.53741      55.0165
42            1            1    -0.121344      5.32075      56.2264
43            1            1       29.949      5.26748      57.3706
44            1            1      30.4998      6.22662      58.4915
45            1            1      29.6176      6.09291      59.7313
46            1            1      29.8409      7.13848       60.826
47            1            1       29.047      6.82363      62.1004
48            1            1      29.2176      7.90823      63.2095
49            1            1      28.3901      7.76027      64.3966
50            1            1      28.9002      8.70151      65.4396
51            1            1      28.2582      8.41692      66.8051
52            1            1      28.4632      9.44503      67.9252
53            1            1      27.4966       9.3466      69.1172
54            1            1      27.7787       10.182      70.3236
55            1            1      26.8071      10.0638      71.5019
56            1            1      27.0419      11.0027       72.671
57            1            1      26.0589      10.8934      73.8012
58            1            1      26.3747      11.9215      74.8993
59            1            1      25.5248      11.6899      76.1927
60            1            1      25.9385       12.438      77.4646
61            1            1       24.946      12.6462      78.5875
62            1            1      25.4959      13.3234      79.8826
63            1            1      24.5013      13.4476      81.0823
64            1            1      24.9268      14.2724       82.336
65            1            1       23.802      14.3532      83.3542
66            1            1      24.2347      15.2658       84.551
67            1            1      23.2869      15.4822      85.7214
68            1            1       23.938      16.1871      86.8908
69            1            1       23.156      16.0391      88.1674
70            1            1      23.5996      16.7764      89.4034
71            1            1      22.4965      16.8229      90.3995
72            1            1      23.0172      17.5881      91.6581
73            1            1      21.9721      17.6656      92.7058
74            1            1      22.3912      18.6456      93.7936
75            1            1      21.4382      18.5635      94.9932
76            1            1       21.784        19.53      96.1142
77            1            1       20.875      19.4429      97.3181
78            1            1      21.2726       20.484      98.2983
79            1            1      20.6353      20.4043      99.6514
80             1             1       21.1421       21.3233       100.769
81             1             1       20.1809       21.3383       101.955
82             1             1       20.6681       22.1876       103.144
83             1             1       19.9175       22.0052       104.466
84             1             1       20.3469        22.961       105.518
85             1             1       19.6432       22.6215       106.837
86             1             1       20.2176       23.2401       108.101
87             1             1       19.3645       22.7481       109.359
88             1             1       19.8591       23.3881       110.591
89             1             1       19.3217       22.7946        111.95
90             1             1       19.8697       23.4447        113.29
91             1             1       19.6207       22.5765       114.496
92             1             1       20.1124       23.0505       115.814
93             1             1       19.9196       22.0135       116.901
94             1             1       20.7862       22.2948       118.124
95             1             1       20.5202         21.32       119.225
96             1             1       21.4414       21.5117       120.376
97             1             1       21.1657       20.6582       121.601
98             1             1       22.0823       20.9574       122.775
99             1             1       21.6868       20.1357       123.991
100             1             1       22.5365       20.3287       125.298
101             1             1       21.9817       19.4515       126.414
102             1             1       22.8587       19.5054        127.61
103             1             1       22.5459       18.5267       128.743
104             1             1       23.3677       18.7449       129.994
105             1             1       23.2627       17.5869       130.969
106             1             1       23.9809       17.8271       132.302
107             1             1       23.8535       16.6703       133.319
108             1             1       24.7811       16.7629       134.516
109             1             1       24.3894       15.6466       135.493
110             1             1       25.3442       15.5953       136.622
111             1             1       24.8258        14.756       137.797
112             1             1       25.8167       14.6436       138.919
113             1             1       25.2449       14.0837       140.231
114             1             1       26.1455       14.1347       141.395
115             1             1       25.7365       13.1992       142.592
116             1             1       26.5353       13.3359       143.855
117             1             1       26.1099       12.2882       144.859
118             1             1       27.0288       12.3918       146.061
119             1             1       26.5044       11.6238        147.29
120             1             1       27.4185       11.6833       148.504
121             1             1       26.9868       10.7858       149.639
122             1             1       28.0019       10.7053       150.772
123             1             1       27.5337       9.92576       151.994
124             1             1       28.4095       9.90613       153.234
125             1             1       28.0674       8.86134       154.294
126             1             1       28.9087       9.05676       155.505
127             1             1       28.5658       8.16017        156.72
128             1             1       29.5638       8.14609        157.82
129             1             1       29.0397       7.24673       158.972
130             1             1       30.0721       7.07686       160.081
131             1             1       29.5275       6.52215         161.4
132             1             1       30.5333       6.01365       162.381
133             1             1       29.9209       5.61533       163.713
134             1             1       30.9531       5.10277       164.647
135             1             1       30.4149       4.59252       165.979
136             1             1      0.357113        4.6473       167.118
137             1             1       30.9906       3.88737       168.301
138             1             1      0.907988       3.74535       169.377
139             1             1      0.261217       3.25965       170.688
140             1             1       1.25635       3.19723        171.81
141             1             1      0.827814       2.08318       172.788
142             1             1       1.85853        1.9833       173.893
143             1             1       1.37924       1.18965       175.057
144             1             1       2.39075       1.29434       176.244
145             1             1       1.83749      0.819575       177.592
146             1             1       2.84397      0.450415       178.694
147             1             1       2.30719       26.7952       179.997
148             1             1       3.37776       26.4254       180.996
149             1             1       2.77346       25.7755         182.2
150             1             1       3.62818       25.5994       183.439
151             1             1       2.98721       24.8454       184.599
152             1             1       3.81938       24.9685        185.79
153             1             1       3.47986       24.0403       186.931
154             1             1       4.45151       23.9755       188.101
155             1             1       4.17268       22.9811       189.214
156             1             1       5.14172       23.0426       190.379
157             1             1        4.7391       22.0349       191.461
158             1             1       5.66436       21.9406       192.661
159             1             1       5.02425       21.2268       193.822
160             1             1       6.01066       21.0712       195.008
161             1             1       5.40497       20.6555       196.338
162             1             1       6.34632       20.0351       197.353
163             1             1       5.77943       19.6801       198.759
164             1             1       6.92609        19.045       199.494
165             1             1       6.47215       18.6578       200.877
166             1             1       7.34667       17.9248       201.811
167             1             1       6.74644       17.7017       203.247
168             1             1       7.83683       17.1759        204.23
169             1             1       7.36162       17.0875       205.669
170             1             1       8.25657       16.4963       206.723
171             1             1       7.62368       16.4418       208.105
172             1             1       8.54007       15.7823       209.155
173             1             1       7.95382       15.6653       210.552
174             1             1       8.87956       14.8563       211.447
175             1             1       8.26206       14.6358       212.845
176             1             1          9.24       13.8596       213.738
177             1             1        8.8784       13.6986       215.227
178             1             1       9.90982       12.9597       216.074
179             1             1       9.54789       12.7818       217.519
180             1             1       10.6795       12.2201       218.373
181             1             1       10.2863       12.0477       219.815
182             1             1       11.2129       11.4019       220.827
183             1             1       10.6528        11.268       222.252
184             1             1       11.7314       10.5735       223.092
185             1             1       11.2954       10.4942       224.571
186             1             1       12.2743       9.61484       225.405
187             1             1       11.7944       9.31121       226.842
188             1             1       12.8134       9.02742       227.881
189             1             1       12.2546       8.36159       229.117
190             1             1       13.2801       8.35852       230.284
191             1             1       12.8127       7.52736        231.49
192             1             1        13.632       7.64805       232.752
193             1             1       13.0789       6.76667        233.88
194             1             1        14.069       6.43215       234.984
195             1             1       13.4082       5.80471       236.184
196             1             1       14.4491       5.63509       237.281
197             1             1       13.8026        5.6306       238.692
198             1             1       14.7557       5.65973       239.903
199             1             1       14.0283       5.28171       241.183
200             1             1         14.93        5.2869       242.402
201             1             1       14.2121       5.06539       243.725
202             1             1       14.8458       5.74869       244.967
203             1             1       14.1114       5.67641       246.306
204             1             1       14.4697       6.59542       247.453
205             1             1        13.771       6.45732       248.816
206             1             1       14.2142       7.35946       249.978
207             1             1        13.389       7.11632       251.243
208             1             1       13.8132       7.94506       252.482
209             1             1        12.705       7.92993       253.583
210             1             1       13.2568        8.5412       254.896
211             1             1       12.2729       8.78147        256.07
212             1             1       12.7811       9.74594       257.213
213             1             1        11.969       9.58459       258.536
214             1             1       12.3974       10.5262       259.682
215             1             1       11.5012       10.5466       260.922
216             1             1       11.8928       11.4751       262.051
217             1             1       10.9959       11.5373       263.285
218             1             1        11.499       12.3169       264.446
219             1             1       10.5389       12.3992       265.632
220             1             1       10.8605       13.3692       266.614
221             1             1       10.1224         13.11       267.959
222             1             1       10.6613       14.0979       268.921
223             1             1       10.2397       13.8525       270.359
224             1             1       10.6677       14.9111       271.436
225             2             1       14.7965       16.1553       268.944
226             2             1       13.8984       16.1546       270.146
227             2             1       14.3083       17.1508       271.236
228             2             1        13.473       17.0444       272.494
229             2             1       13.9205       18.0445       273.584
230             2             1       13.2254        17.848        10.663
231             2             1       13.8477       18.6521       11.7423
232             2             1       12.9468       18.6059       12.9471
233             2             1       13.3318       19.6613       13.9723
234             2             1       12.3839       19.5681       15.1499
235             2             1       12.6137       20.5031       16.3201
236             2             1       11.8602       20.1586       17.6285
237             2             1       11.9171       21.2857        18.622
238             2             1       11.3765        21.024       20.0425
239             2             1       11.6297       22.2576       20.9123
240             2             1       11.0748       21.9751       22.3134
241             2             1        11.311       23.0271       23.3483
242             2             1       10.6113       22.9672       24.6627
243             2             1       10.6916         24.17       25.6571
244             2             1       9.86532       23.9594       26.9262
245             2             1       10.2123       24.9885       28.0165
246             2             1       9.51479       24.7648       29.3013
247             2             1       9.80878       25.7316       30.4417
248             2             1       9.11988       25.3422       31.7306
249             2             1       9.09857       26.6094       32.6879
250             2             1       8.64017       26.1871       34.1071
251             2             1       8.60397      0.445492       35.1242
252             2             1       7.94163     0.0886846       36.4489
253             2             1       8.04657       1.33889       37.3458
254             2             1       7.41539       1.23988       38.7454
255             2             1        7.8124       2.23213       39.7782
256             2             1       6.83494       1.89439        40.918
257             2             1       7.10083       2.75582       42.1692
258             2             1       5.94853       2.93866       43.1756
259             2             1       6.46728       3.54999       44.4576
260             2             1         5.401       3.51606         45.57
261             2             1       5.85633       4.42001        46.698
262             2             1       4.99321       4.42215       47.9777
263             2             1       5.57664       5.17925       49.1567
264             2             1       4.55862       5.40345       50.2655
265             2             1       5.25562       5.99827       51.4482
266             2             1       4.25574       5.82421       52.6607
267             2             1       4.72107       6.62097       53.9226
268             2             1       3.87327       6.46138       55.1585
269             2             1       4.02064       7.65208       56.1227
270             2             1       3.06766        7.5781       57.3618
271             2             1       3.21039       8.59096       58.4892
272             2             1       2.27375       8.35525        59.638
273             2             1       2.47389       9.41489       60.7451
274             2             1       1.55686          9.23        61.933
275             2             1       2.11513       10.0628       63.1267
276             2             1       1.25201        9.9218       64.3351
277             2             1       1.65857       10.8743       65.4591
278             2             1      0.879824       10.7538       66.7875
279             2             1       1.29551       11.7277       67.9077
280             2             1      0.459135       11.6177       69.1767
281             2             1      0.636765       12.7129       70.2633
282             2             1         30.89       12.2931       71.4445
283             2             1       30.7203       13.4714       72.3911
284             2             1       30.0168       13.1391       73.6823
285             2             1       29.9889        14.293       74.6642
286             2             1       29.3729       14.0583       76.0565
287             2             1       29.6514       15.0294       77.1723
288             2             1       28.8883       14.8196       78.4244
289             2             1       29.1432       15.8045        79.556
290             2             1       28.4579       15.5009       80.8661
291             2             1       28.5733       16.6165        81.893
292             2             1       27.7803       16.4215       83.1765
293             2             1       28.0472       17.3877       84.2923
294             2             1        27.352       17.0843        85.644
295             2             1       27.8126       17.9613        86.829
296             2             1       27.2129       17.6841       88.1891
297             2             1       27.2258       19.0394       88.9181
298             2             1       26.8462       18.8412       90.3334
299             2             1        26.586       20.0974       91.1125
300             2             1       26.2242       19.7094       92.5222
301             2             1       25.8733       20.9178       93.3221
302             2             1       25.4186       20.6477       94.7298
303             2             1       25.2385       21.8706       95.6349
304             2             1       24.9111       21.4316       97.1038
305             2             1       25.2073       22.5194       98.1268
306             2             1       24.2867       22.5718       99.3603
307             2             1       25.0381       23.2605       100.501
308             2             1       24.1376       23.3734       101.697
309             2             1       24.6878       24.2474       102.808
310             2             1        23.865       24.3271       104.078
311             2             1       24.3155       25.1826       105.291
312             2             1       23.4815       25.0007        106.58
313             2             1         23.86       25.7695       107.812
314             2             1       23.1127       25.4508       109.086
315             2             1       23.6803       26.1539       110.289
316             2             1       23.9932       25.1288       111.415
317             2             1       23.8411       25.7286       112.812
318             2             1       24.0888       24.7078       113.917
319             2             1        23.947       25.1399       115.347
320             2             1        24.345       24.1154        116.45
321             2             1       24.0891       24.4039       117.935
322             2             1       24.6735       23.4689       119.073
323             2             1       24.5808        23.891        120.53
324             2             1       25.3123       22.9086       121.433
325             2             1        25.186       23.2092       122.904
326             2             1       25.4788       21.9622        123.74
327             2             1       25.9314       22.2303       125.171
328             2             1       26.0558       21.0676       126.171
329             2             1       26.6185        21.435        127.51
330             2             1       26.4581       20.2417       128.507
331             2             1       27.0991       20.5035       129.845
332             2             1        27.105       19.3066       130.767
333             2             1       27.7099       19.6004        132.13
334             2             1       27.6132       18.4983       133.236
335             2             1       28.2215       18.8568       134.573
336             2             1       28.2649       17.6787       135.584
337             2             1       28.8889       18.0074       136.913
338             2             1       28.8585       16.7675        137.82
339             2             1       29.2002       17.0471       139.329
340             2             1       29.6307       15.8835       140.075
341             2             1       29.8766         16.14       141.553
342             2             1       29.9322       14.9181       142.434
343             2             1       30.2344       15.3808       143.896
344             2             1       30.2889       14.1594       144.864
345             2             1       30.9422       14.4295       146.188
346             2             1       30.7131       13.3315        147.24
347             2             1      0.258482       13.6693       148.534
348             2             1   -0.00306355       12.7284       149.706
349             2             1      0.767505       12.9775       150.991
350             2             1      0.274722       12.0714       152.101
351             2             1      0.931846       12.2602        153.42
352             2             1      0.601082       11.2427       154.503
353             2             1       1.54337       11.3628       155.673
354             2             1       1.31951       10.3931       156.797
355             2             1       2.26062       10.5962       157.965
356             2             1       1.86011       9.60412       159.115
357             2             1       2.74417       9.69789       160.351
358             2             1       2.51694       8.58122       161.325
359             2             1       3.12471       8.86717       162.645
360             2             1       2.86552       7.82766       163.751
361             2             1       3.42962       8.02865        165.15
362             2             1       3.23094       6.87335       166.188
363             2             1       3.75816       7.25652       167.552
364             2             1       3.98725        6.0392       168.498
365             2             1       4.61785       6.42527       169.804
366             2             1       4.68117       5.34212       170.899
367             2             1       5.26815       5.69738       172.299
368             2             1        5.1358       4.50592        173.22
369             2             1       5.76178       4.68485       174.552
370             2             1       5.21318       3.63695       175.501
371             2             1       6.03708       3.69861       176.764
372             2             1       5.47352       2.82343       177.854
373             2             1       6.50003       2.57018       178.986
374             2             1       5.90962       1.74403       180.152
375             2             1       6.94668       1.47352       181.248
376             2             1       6.28107      0.881224       182.457
377             2             1       7.32652      0.686769       183.521
378             2             1       7.00058    -0.0155801       184.868
379             2             1       8.01773     0.0732815       185.987
380             2             1       7.53755       26.2068       187.217
381             2             1       8.54316       25.9758       188.329
382             2             1       7.92031       25.1159       189.406
383             2             1       8.72494       25.1067       190.738
384             2             1       8.40515       24.0438       191.732
385             2             1       9.21564       24.3906       193.043
386             2             1        8.9202       23.3044       194.041
387             2             1       9.46903       23.5897       195.454
388             2             1       9.31201       22.4912       196.456
389             2             1       10.0406       22.6734       197.778
390             2             1       9.72037       21.4519       198.677
391             2             1       10.4365       21.6141       200.053
392             2             1       10.3211       20.3594       200.972
393             2             1       10.9541        20.629        202.37
394             2             1        10.705       19.5614       203.319
395             2             1         11.32       19.8613       204.686
396             2             1       11.0634       18.7486       205.697
397             2             1       11.7812       18.9658       207.029
398             2             1       11.2189       18.1261       208.128
399             2             1       12.0906       18.1582       209.369
400             2             1        11.728       17.0548       210.422
401             2             1       12.5703       17.1808       211.713
402             2             1       12.1527       16.2556       212.851