LAMMPS data file via write_data, version 23 Jun 2022, timestep = 1000000

9706 atoms
2 atom types
9690 bonds
3 bond types
9674 angles
3 angle types
9658 dihedrals
3 dihedral types

0 36.89775039 xlo xhi
0 26.67072 ylo yhi
0 236.7516044 zlo zhi
0 7.448720975 0 xy xz yz

Masses

1 14
2 15

Pair Coeffs # lj/cut/omp

1 0.0914 3.95
2 0.1947 3.75

Bond Coeffs # harmonic/omp

1 449.5 1.53
2 449.5 1.53
3 449.5 1.53

Angle Coeffs # harmonic/omp

1 62.0967 114
2 62.0967 114
3 62.0967 114

Dihedral Coeffs # opls/omp

1 1.411 -0.271 3.145 0
2 1.411 -0.271 3.145 0
3 1.411 -0.271 3.145 0

Atoms # molecular

1 2 1 7.857397747594409 0.9863171396166158 9.814895196628806 0 0 0
2 2 1 7.953126943483508 0.45527142555287664 11.242210226925078 0 0 0
3 2 1 8.850868260955284 1.2958485804299242 12.163429950783016 0 0 0
4 2 1 8.867601688401978 0.5215588553654744 13.496149926144389 0 0 0
5 2 1 9.728412937560675 1.2442771550019331 14.519463128286342 0 0 0
6 2 1 9.906131033066858 0.4472117714816751 15.810871833399135 0 0 0
7 2 1 10.878346516890023 1.023505784954218 16.832053300723224 0 0 0
8 2 1 11.334244793204888 0.01742595549356632 17.951475380601153 0 0 0
9 2 1 12.332810571676408 0.6695663317011179 18.905880346936968 0 0 0
10 2 1 12.807478826253618 26.490997430497302 20.05433935353908 0 -1 0
11 2 1 13.592866936763016 0.5474967919312479 21.096703060559907 0 0 0
601 57 1 2.4584626875588014 5.163274776970675 0.4727574485774283 0 0 0
2295 14 1 17.312831676615872 25.600140469968398 19.103246289650688 0 0 0
615 6 1 18.328049432613735 7.276893330957196 22.978946996802105 0 0 0
318 6 1 18.39003473518184 3.330195884360285 21.60030690921809 0 0 0
2285 56 1 7.545861169612858 25.36162929410849 2.6076959937283797 0 0 1
821 5 1 7.429669139879955 7.654815837450286 2.920451815040048 0 0 1
3202 19 1 17.150987082384123 10.335246784956428 10.70013312671355 0 0 0
220 2 1 4.054892637881391 0.416131894694221 4.5426064385231735 0 0 0
221 2 1 5.176792279237899 1.0146801472566511 5.325521232458714 0 0 0
222 2 1 5.320861187094137 0.45619882441926496 6.749357233176916 0 0 0
223 2 1 6.366113734494408 1.154225974327243 7.624827623420008 0 0 0
224 2 1 6.649913393466878 0.47279891208553354 8.994702236690204 0 0 0
304 6 1 10.24580313870082 2.9731368709012003 5.5374494923077995 0 0 0
305 6 1 10.34848438107598 3.284685084449601 7.022760472064362 0 0 0
306 6 1 11.680470975133963 3.2868257352826946 7.693939577131547 0 0 0
307 6 1 11.554267879860237 3.2835580485105162 9.181247065655183 0 0 0
308 6 1 12.893814884503639 3.426019178537709 9.91026405800807 0 0 0
309 6 1 12.753821868106424 3.423386644636463 11.473147111026588 0 0 0
310 6 1 14.121976746676294 3.0270551605567886 12.131282708694904 0 0 0
311 6 1 14.042405034905162 3.1328962838358576 13.717415855735139 0 0 0
312 6 1 15.328005415157438 2.903447997789426 14.516677190524867 0 0 0
313 6 1 15.11766907776573 2.852082326708753 16.038390934151042 0 0 0
314 6 1 16.35777054570763 3.149256297685361 16.901151068274725 0 0 0
2810 18 1 16.992354092491315 3.557178261070516 1.8826263660678069 0 0 1
1467 11 1 15.970597313823395 16.4574285857895 17.013202852935237 0 0 0
2201 14 1 2.451672274805648 23.235381500435118 0.4821901367753014 0 0 0
379 6 1 7.844809551983241 3.6943289911294337 1.1164101292102484 0 0 0
380 6 1 7.7284579170593535 3.9056357291175647 2.6363590044362732 0 0 0
381 6 1 9.03862045131007 3.6174732835605043 3.416138873486487 0 0 0
382 6 1 8.869428685775691 3.3927108710823135 4.885209328846458 0 0 0
383 57 1 6.313088314270906 5.06303420056012 7.339313469125523 0 0 0
384 57 1 6.338903215627889 5.543055682235416 8.792181973002926 0 0 0
385 57 1 7.569278792182663 5.113377472892425 9.578126370300364 0 0 0
386 57 1 7.528506823061972 5.5401052930458 11.00296734827911 0 0 0
387 57 1 8.846361793778533 5.1707581582639675 11.707107915631335 0 0 0
388 57 1 8.700686558501083 5.513000702677265 13.182119700418413 0 0 0
389 57 1 9.89628792428866 5.039300263898131 14.038350542393706 0 0 0
390 57 1 9.844053627492437 5.284484886441904 15.540056502944907 0 0 0
391 57 1 10.934644104406138 4.680748755406338 16.396491490066133 0 0 0
392 57 1 11.042557906361674 5.269572888949002 17.833931094406406 0 0 0
393 57 1 12.080330471773529 4.650837353633848 18.68164635946824 0 0 0
394 57 1 12.116308677983355 5.221605621949023 20.114895509059462 0 0 0
9189 60 1 2.525987956665195 20.658688650216913 9.617031558643715 0 0 0
319 6 1 18.633962726641933 2.5120382342054044 22.899390456379194 0 0 0
4034 28 1 15.891171752884043 18.46367212026235 9.630654297721447 0 0 0
4483 28 1 13.182141615024774 23.66023275907248 5.26826575456275 0 0 0
820 5 1 7.448928596451661 8.089455852329845 1.4101834548906342 0 0 1
2970 46 1 12.312239559713369 6.121874042957129 1.5484136865056344 0 0 1
602 57 1 2.7211639043095466 5.88062534888949 1.851852731566542 0 0 0
603 57 1 3.78849045512862 5.226435357297263 2.6691283583254632 0 0 0
604 57 1 4.080176963983991 5.755452717902557 4.114155102040265 0 0 0
605 57 1 5.2050088947205015 5.117916047601601 4.951908030154474 0 0 0
606 57 1 5.282453610393629 5.659214782102392 6.360331245711864 0 0 0
607 6 1 13.192404156249488 7.404231742799944 14.281378131068395 0 0 0
608 6 1 14.566432597599936 7.283863234537073 14.992281856418815 0 0 0
609 6 1 14.512392990684218 7.262171604630508 16.505984265761434 0 0 0
610 6 1 15.87500516629694 7.605581991088713 17.067066761590947 0 0 0
611 6 1 16.002605195589698 7.195107488995929 18.582417039838457 0 0 0
612 6 1 17.278882365127476 7.770456903372605 19.248780032600457 0 0 0
613 6 1 17.288564287953573 7.245013719634117 20.7061079625845 0 0 0
4186 24 1 18.083031776202155 20.54910969300555 5.466833015957764 0 0 0
2584 15 1 10.954045420395897 1.1093008892755907 0.6002686056153154 0 0 1
1210 9 1 8.301608991441837 13.022210855900125 1.1725626929448643 0 0 0
9495 51 1 0.3176478173212026 25.4994181456443 5.1850373754231605 0 0 0
3801 24 1 16.3776704390366 16.861170357147596 1.462529473780287 0 0 0
835 8 1 1.809400151923456 9.89031709034275 0.5673208043517024 0 0 0
2371 16 1 18.77802602914308 1.128388443094317 12.341649353586487 0 0 0
827 6 1 10.999469049165915 7.204800513150514 9.619020880060415 0 0 0
828 6 1 12.193089420777861 7.6297735821742 10.490177161174504 0 0 0
829 6 1 11.944835454269013 7.323033508886018 11.95555086225049 0 0 0
830 6 1 13.285051416074658 7.416629792637538 12.751015169753558 0 0 0
2972 19 1 17.349924745039083 8.690765232756196 3.3895273736292104 0 0 0
1150 9 1 18.63621792808234 11.565586034936098 22.958770836496633 0 0 0
378 6 1 6.4979661029405085 3.7976864483769535 0.333080949851616 0 0 0
2812 1 1 17.777042387316044 3.3156302659513064 4.359184893689 0 0 0
2372 16 1 18.451480551424677 0.7357673582759363 13.798184233513611 0 0 0
836 8 1 3.136212484181756 10.024352794910074 1.354427681612807 0 0 0
837 8 1 2.9760702107753296 10.056869532596227 2.866908439091106 0 0 0
838 8 1 4.2715416574003315 10.307956440055573 3.617202184341121 0 0 0
839 8 1 4.116382698729367 10.241481055707002 5.180607954304597 0 0 0
840 8 1 5.412713655511907 10.245158739875517 5.988743454547001 0 0 0
841 8 1 5.166333094566542 9.949268470697353 7.496677092001372 0 0 0
842 8 1 6.495453493815582 10.065216673070392 8.234578469335341 0 0 0
1774 45 1 18.780723584614165 20.051113560742987 22.31802867431086 0 0 0
7308 48 1 4.291522497836763 0.6310986644139002 21.917763041361994 0 0 0
1470 11 1 17.355135584165645 15.933751940430612 20.748895454367027 0 0 0
2585 15 1 12.103931663530032 1.5656125694029204 1.5213540656571012 0 0 1
825 5 1 9.939461412696398 7.2796791220057315 7.354805870042568 0 0 1
2973 19 1 18.54421012044877 8.01219668617099 4.076128383468802 0 0 0
3423 20 1 17.78403831291459 12.189069076408058 3.679339065992906 0 0 0
4561 29 1 11.277093728264271 23.726812847565537 0.6004845621892777 0 0 1
4184 24 1 17.07392577959626 20.632133334135027 3.1208187905588827 0 0 0
2811 18 1 17.26269454893831 4.24380247733375 3.2162460543333045 0 0 1
9285 61 1 3.6658518875700543 23.021891129496876 20.95612689485464 0 0 0
1134 9 1 9.310041103239888 12.345492661610718 4.945228747335858 0 0 0
1135 9 1 10.44776003442108 12.740441302391137 5.89580750395624 0 0 0
1136 9 1 10.217329809368449 12.208819897038131 7.3207862361714575 0 0 0
1137 9 1 11.535321342174129 12.196954157400707 8.102148483156963 0 0 0
1138 9 1 11.36589299470167 11.686294946538721 9.547187139837247 0 0 0
1139 9 1 12.654046483091728 11.73175938788682 10.354455849503701 0 0 0
1140 9 1 12.406844947641959 11.412488565902025 11.848988909812093 0 0 0
1141 9 1 13.633605689488324 11.676781948710955 12.724975398322655 0 0 0
1142 9 1 13.333393117945224 11.232258936706172 14.173865960911087 0 0 0
1143 9 1 14.47225565747233 11.678923119733321 15.036584636705747 0 0 0
1144 9 1 14.666111103398826 11.056545819157504 16.410651449983824 0 0 0
1145 9 1 15.825075463809876 11.70483962860838 17.1591905398527 0 0 0
9502 51 1 4.142619985824048 25.101581762684336 13.23893261910492 0 0 0
2809 18 1 16.35731855335971 4.240797131611464 0.7250197534321817 0 0 1
8131 39 1 2.481734156199767 9.514924995866023 19.375046447550027 0 0 0
9200 60 1 8.691981484677179 21.19879505326319 22.113149711895247 0 0 0
1211 9 1 8.20428617938298 12.543867576248497 2.6124909386699535 0 0 0
1212 9 1 9.301059431095997 13.047060429912504 3.54932144535803 0 0 0
1213 61 1 7.496772527781655 13.72890096794897 10.061047584518567 0 0 0
1214 61 1 7.340559614748292 14.199150556263453 11.512176470122883 0 0 0
1215 61 1 8.537285270995236 13.99695969608236 12.383404077308425 0 0 0
1216 61 1 8.449404169580125 14.613806507841103 13.736504911462957 0 0 0
1217 61 1 9.778830137645766 14.36956450690334 14.466827966733046 0 0 0
1218 61 1 9.747761058595017 13.94250790590218 15.956366254492815 0 0 0
1219 61 1 11.061732129179862 13.734542771029028 16.662009700211424 0 0 0
1220 61 1 10.978301478455208 13.406268086195695 18.18348970050836 0 0 0
1221 61 1 12.24947033565761 13.59724722756539 18.995948644943102 0 0 0
1222 61 1 12.04043432853322 13.794368395503751 20.48625302063053 0 0 0
1223 61 1 13.353840675284278 13.842263182002938 21.239671059331872 0 0 0
8897 44 1 2.7916058700945348 17.818714636671384 18.44350355559244 0 0 0
9510 51 1 9.00999552471413 24.82823734583324 22.236635710995856 0 0 0
846 8 1 8.956092300135907 9.530546761726555 12.886128027729315 0 0 0
9287 61 1 4.800832482750302 23.290363476364927 23.201117453359274 0 0 0
4033 28 1 15.988878783107966 18.866890996476865 8.167995595517427 0 0 0
1376 54 1 3.1010544778049147 14.637684791429171 0.9265199582982229 0 0 1
3720 22 1 12.738384165238552 14.841267991863681 1.4023020097901093 0 0 0
1287 61 1 4.313362031938196 14.762806450332754 4.60549420258111 0 0 0
1288 61 1 5.623387834796573 14.434211931771772 5.322125554960339 0 0 0
1289 61 1 5.577924183989604 14.862260990803243 6.836038245436141 0 0 0
1290 61 1 6.800150614210715 14.440482585994596 7.637274026316637 0 0 0
1291 61 1 6.4885537388374415 14.402190578192721 9.154137038342371 0 0 0
1456 11 1 8.751479243703645 16.905326702062027 5.020742434779004 0 0 0
1457 11 1 10.05994268998762 16.754743318042816 5.772147435128167 0 0 0
1458 11 1 9.845615688181738 16.759166986891035 7.261952042107387 0 0 0
1459 11 1 11.175630128128685 16.589279758121446 8.05793581151245 0 0 0
1460 11 1 11.071137382631777 16.685136155627873 9.608573326337373 0 0 0
1461 11 1 12.458503402869237 16.55474996113002 10.267333741228683 0 0 0
1462 11 1 12.23488113112105 16.81746023418155 11.747142936150926 0 0 0
1463 11 1 13.517182589935794 16.90134151493415 12.54632590328875 0 0 0
1464 11 1 13.311956036435303 16.59145704233876 14.031333612980664 0 0 0
1465 11 1 14.583113200864707 16.547480898844398 14.896124446416657 0 0 0
1466 11 1 14.587308803398415 16.205341074259348 16.418888638730316 0 0 0
9511 51 1 10.337819222945967 25.11657069181678 22.932099179694728 0 0 0
9281 61 1 1.1298443554118873 23.43718170390067 16.45423769618208 0 0 0
4036 28 1 17.12011974285795 18.241049281595544 11.824755215383025 0 0 0
7301 48 1 0.5579681124827139 1.0230573301643262 13.740959673357356 0 0 0
7594 48 1 2.94715115683355 2.600237154489669 9.314036027868449 0 0 0
3719 22 1 11.419469969803059 15.093331360079139 0.6887681651313702 0 0 0
1534 11 1 8.900038599538204 17.234190763323575 3.5491548429894855 0 0 0
1535 12 1 6.172953766806198 18.54732635387032 7.856376964783181 0 0 0
1536 12 1 5.893533537645971 18.474154180398507 9.36949965871553 0 0 0
1537 12 1 7.230251286515745 18.471900150870262 10.079784407337135 0 0 0
1538 12 1 7.117738360703675 18.38910712183236 11.605803926389907 0 0 0
1539 12 1 8.373343376158633 18.8320380718913 12.340099041664773 0 0 0
1540 12 1 8.1827512911252 19.136509864180987 13.83560550975066 0 0 0
1541 12 1 9.505781695261307 19.21047661495861 14.585248506176763 0 0 0
1542 12 1 9.504243151536322 19.235237146057827 16.1210996254425 0 0 0
1543 12 1 10.875011546440765 18.91187839194287 16.784210029740585 0 0 0
1544 12 1 10.73811248225865 18.78694012401559 18.2849216181082 0 0 0
1545 12 1 12.17332275224069 18.61615494982402 18.878834928668606 0 0 0
2971 19 1 17.231005238395394 8.275383064567718 1.9175942029685231 0 0 0
4410 28 1 16.927879284464648 23.060593301302674 12.04915231715545 0 0 0
1286 61 1 4.536499444439828 14.452958471420095 3.0507955662927655 0 0 0
7593 48 1 1.6319829577720197 2.8400818307903157 8.553112864037999 0 0 0
822 5 1 8.664972559734899 8.08028451055933 3.7404643392568353 0 0 1
823 5 1 8.662744475375055 7.431879468756166 5.136784594425765 0 0 1
1753 12 1 2.616041022653281 18.955486658603746 0.9975012804874464 0 0 0
1754 12 1 2.5403279151701392 18.691475678809024 2.471866701809423 0 0 0
1755 12 1 3.806224240375262 19.123832086276412 3.1819842657335795 0 0 0
1756 12 1 3.7527656910408487 18.928736952790338 4.737807592002848 0 0 0
1757 12 1 5.139906836372388 18.739609164533693 5.424658786258384 0 0 0
1758 12 1 4.898018260120648 18.649870261799894 6.937569497879464 0 0 0
1759 45 1 9.610790599833845 20.87537570464303 5.690808730940613 0 0 0
1760 45 1 9.41821275491579 20.661887163461756 7.167517207791501 0 0 0
1761 45 1 10.797987951671686 20.737397186445484 7.902792414972816 0 0 0
1762 45 1 10.679439841988296 20.548356478422477 9.462975815944606 0 0 0
1763 45 1 12.02940959756369 20.814063097202094 10.215715491201635 0 0 0
1764 45 1 11.898463929824453 20.83457395295682 11.710156834069478 0 0 0
1765 45 1 13.23273877248598 21.298861242834484 12.325714937264406 0 0 0
1766 45 1 13.358996229237938 20.735539554929108 13.76244657100991 0 0 0
1767 45 1 14.649242919894684 21.109741117941546 14.460113455440382 0 0 0
1768 45 1 14.864298049031362 20.34090457304597 15.780699814260071 0 0 0
1769 45 1 16.198489229521282 20.85766546590631 16.441546947587376 0 0 0
1148 9 1 17.41736332125841 11.372362169464816 20.69730986307734 0 0 0
1770 45 1 16.038861753133688 20.520645476211328 17.969509852874804 0 0 0
317 6 1 17.199428597362544 2.8739823695945885 20.741291295354326 0 0 0
1979 45 1 7.110026719281978 21.47647258474297 1.195672495235192 0 0 0
1980 45 1 7.065180822207354 21.270083390950777 2.6776101806160155 0 0 0
1981 45 1 8.420981683047787 21.39807544064418 3.360449196538483 0 0 0
1982 45 1 8.299530439885894 21.17067027904796 4.906490788901847 0 0 0
1983 14 1 5.97787539236258 23.29594177886827 7.182444649534028 0 0 0
1984 14 1 5.900137366150035 22.947200616299856 8.659922419713755 0 0 0
1985 14 1 7.186909250888152 23.164658989311537 9.448678726861896 0 0 0
1986 14 1 7.115969922743409 22.768435583468932 10.958545956712662 0 0 0
1987 14 1 8.404615743728113 22.825328271459583 11.692465407115513 0 0 0
1988 14 1 8.38067994062641 22.864332291163038 13.194888198463412 0 0 0
1989 14 1 9.763473504169761 23.059678745922636 13.862148857427687 0 0 0
1990 14 1 9.637042926242172 22.963361569322597 15.376254702732163 0 0 0
1991 14 1 10.965674696338674 23.204566883434232 16.01252707692927 0 0 0
1992 14 1 10.862339412687803 23.00392087409529 17.51601856724999 0 0 0
1993 14 1 12.138951819288183 22.90842626121114 18.30367600112393 0 0 0
1994 14 1 11.86327866922451 22.948311222311702 19.83629589392418 0 0 0
1995 14 1 13.226784289672006 22.616444954947042 20.588854149177173 0 0 0
1978 45 1 5.925794296845604 21.212973051175254 0.2618621681146826 0 0 0
2284 56 1 7.555318725179544 25.8088538269364 1.132568221366688 0 0 1
3418 19 1 12.702790830112043 10.448284996881258 1.325497222038146 0 0 0
2586 16 1 12.137644964808567 0.7629438005922503 2.8663764357355372 0 0 0
8423 2 1 1.989921340891843 12.491038325518893 9.156397839227392 0 0 0
2202 14 1 2.1623425167492147 23.22799264700877 1.9754478887059888 0 0 0
2203 14 1 3.491599811928611 23.21266165232422 2.73533817713595 0 0 0
2204 14 1 3.285581006232737 23.090902883363306 4.265344204194265 0 0 0
2205 14 1 4.666737266708872 23.124512994123272 4.947591478129946 0 0 0
2206 14 1 4.621555315222354 23.108407762518418 6.450483898303826 0 0 0
2286 14 1 11.080698257403357 25.16150872767193 9.285804809176692 0 0 0
2287 14 1 12.318813613642668 25.579468532064904 10.16927401984601 0 0 0
2288 14 1 12.268563311949432 25.34548478486104 11.704572043811089 0 0 0
2289 14 1 13.661296831379982 25.444814413639353 12.291378609934325 0 0 0
2290 14 1 13.736583687224657 25.08677636184956 13.754602806808737 0 0 0
2291 14 1 15.06318496307992 25.345524009553262 14.44617056362163 0 0 0
2292 14 1 14.919333916580632 25.228926342503126 15.997841734326807 0 0 0
2293 14 1 16.292766658922268 25.307352730291566 16.713559011725717 0 0 0
2294 14 1 16.079817306098658 25.196902308871188 18.25816374741516 0 0 0
9201 60 1 9.856325575073093 20.67724902120381 22.933920186118442 0 0 0
9199 60 1 8.544124744136532 20.501500102612926 20.77008976248541 0 0 0
8820 57 1 10.214997245390363 16.4956775906595 23.189683893787794 0 0 0
2589 1 1 18.4135110411603 4.142476050827114 5.4910566501157465 0 0 0
8819 57 1 8.947516458890252 16.25963371119322 22.41202750190457 0 0 0
2361 14 1 8.578444221172711 25.30209086976782 4.771933786235273 0 0 0
2362 14 1 9.571236318310659 25.83144729071954 5.750923964051731 0 0 0
2363 14 1 9.676434736982202 25.31279196558674 7.171535030866105 0 0 0
2364 14 1 11.037860535249335 25.64254598768594 7.817705566515249 0 0 0
2365 16 1 14.681774517067447 1.3109519970565335 5.826575987321124 0 0 0
2366 16 1 14.877231638715273 0.7784466331481473 7.2511399743141345 0 0 0
2367 16 1 16.004558479032298 1.4082928873412284 8.021177454786455 0 0 0
2368 16 1 16.191562186310207 0.9737968806772388 9.442913610034807 0 0 0
2369 16 1 17.548700846677356 1.1493921692650595 10.049087862944663 0 0 0
2370 16 1 17.542805258731455 0.8560073846940951 11.547564923751183 0 0 0
9509 51 1 9.014409800640959 25.43180712134157 20.841471534793314 0 0 0
3650 22 1 16.933223178841942 13.987668019609018 12.384408330555347 0 0 0
8434 2 1 8.387836219519587 11.057702697338522 21.498434048893206 0 0 0
2588 16 1 13.443278105389853 0.6425701173144313 5.190531140545687 0 0 0
7690 50 1 3.0015751840316955 5.206889382329763 19.2022367781297 0 0 0
824 5 1 9.896001929027488 7.862573412514238 5.955895659499645 0 0 1
8806 57 1 1.654251380328512 16.11231010750014 7.786003867165287 0 0 0
3802 24 1 17.731997889293176 16.984854818016586 2.1863111729188542 0 0 0
2813 9 1 15.045706600657734 5.80168739597146 5.790425595129011 0 0 0
2814 9 1 14.836847127671867 5.783513321453953 7.262871951837129 0 0 0
2815 9 1 16.18579517800959 5.852512655322249 8.06287205394329 0 0 0
2816 9 1 16.021332522384164 5.68694068614753 9.562097018228286 0 0 0
819 5 1 6.21962235838754 7.515373431927898 0.6618442489879149 0 0 1
2974 19 1 18.618399271729817 8.41434271713953 5.568430346127911 0 0 0
4722 29 1 17.160401007538084 25.482931783313962 1.676475802900678 0 0 1
7590 48 1 0.531290832042292 3.3278943922315154 4.957138629906358 0 0 0
2890 9 1 13.766162430529644 6.096124586680997 3.619219970844261 0 0 0
2891 9 1 13.693414196591537 5.750953109286146 5.11519121691896 0 0 0
7895 7 1 1.3870396117583221 7.470601360261857 6.891728154285252 1 0 1
4032 28 1 14.803233587723282 18.511717913613026 7.322136854484687 0 0 0
3422 20 1 17.869438387442067 12.66005606434515 2.233074214909702 0 0 0
1147 9 1 16.954651065625125 11.960482228790728 19.394094303525822 0 0 0
3195 19 1 12.955206841348016 9.893628226346276 2.7492786358058074 0 0 0
3196 19 1 13.68497368549795 10.829409383807047 3.7945017192479256 0 0 0
3197 19 1 13.752424288516966 10.267593136608994 5.15682414224917 0 0 0
3198 19 1 14.837349288319126 10.733443768503085 6.082732530637016 0 0 0
3199 19 1 14.990453342117075 9.931657728569004 7.3818760720001375 0 0 0
3200 19 1 16.048379290805283 10.474526185533714 8.40311562222819 0 0 0
3201 19 1 16.137347099999353 9.749270340022372 9.734430216042336 0 0 0
8422 2 1 1.930683199044752 12.039951395668625 7.683308922811743 0 0 0
3194 19 1 15.966933413445409 8.535992693154368 1.2177139200193452 0 0 0
8519 60 1 5.184661571213394 14.240955224928467 22.86830174289981 0 0 0
7605 48 1 8.960917059437154 3.1901915550014865 22.173895635352707 0 0 0
316 6 1 17.44944392968363 3.21807285496797 19.226046336474152 0 0 0
7303 48 1 1.8583060325997511 0.9180608816241385 16.126428765231722 0 0 0
9507 51 1 7.735056584678402 25.39563136283649 18.472342919095365 0 0 0
3643 22 1 13.733167093149547 14.443733831362039 3.771928087451881 0 0 0
3644 22 1 13.708526496471405 14.867761896928453 5.242591915283477 0 0 0
3645 22 1 14.997052499596622 14.552748349062792 6.177294207951067 0 0 0
3646 22 1 14.75430848372089 14.639353764874445 7.641771170088175 0 0 0
3647 22 1 15.928793480364181 14.357852059688275 8.596366486342424 0 0 0
3648 22 1 15.76999348152536 14.381009996793027 10.140383223078755 0 0 0
847 8 1 8.541082939612787 9.821355127437226 14.308915366063697 0 0 0
1546 12 1 12.138554131404039 18.331075583022127 20.37929292806348 0 0 0
1549 12 1 14.95654858323103 18.185601616193168 23.054991460822883 0 0 0
3721 22 1 12.704604358234276 15.201003253114026 2.9030971135077737 0 0 0
2889 9 1 12.378120866574301 5.8521280433288245 3.0438026832695253 0 0 0
396 57 1 13.103591057640621 5.1373079757337985 22.434270123551016 0 0 0
3417 19 1 11.561442327329004 9.855652710317626 0.5554287637430314 0 0 0
7896 31 1 1.5061270751653955 7.754237930723847 8.42986017769257 1 0 0
854 8 1 13.749579947992629 9.419779270073462 21.571882552476332 0 0 0
1375 54 1 1.7613108093814882 14.330648732744795 0.25343813545544364 0 0 1
4027 28 1 12.624667642097684 19.85506593195964 1.4465573394205842 0 0 0
4028 28 1 12.645427600926421 19.041509158460123 2.719483817637792 0 0 0
4029 28 1 13.573775819609516 19.702718386628884 3.719853854155157 0 0 0
4030 28 1 13.813986227225715 18.766276598860344 4.979465105007561 0 0 0
4031 28 1 14.874627402651198 19.222940264452152 5.946489164549205 0 0 0
8132 39 1 3.6952114783780337 9.071454644310505 20.18849524485009 0 0 0
1225 61 1 14.611925702441859 13.73944717000102 23.474332709376416 0 0 0
1471 11 1 18.7155468348126 16.202749134282772 21.38647575404813 0 0 0
12 2 1 13.833284435640339 26.423162435124155 22.36009217612896 0 -1 0
4411 28 1 18.335227964052 23.053414575850937 12.67940449879846 0 0 0
7592 48 1 1.7479336441838393 2.9604605443378285 7.077385897773401 0 0 0
8435 2 1 8.9446581742853 11.943138400442447 22.572277047210775 0 0 0
4407 28 1 15.487206930972041 23.342931219447664 8.414547598480128 0 0 0
4408 28 1 15.51918825779402 23.318312136979205 9.93994374446323 0 0 0
4409 28 1 16.911254509420043 23.04756888991412 10.51960121518107 0 0 0
8421 2 1 0.8445717568360112 12.680278444316185 6.852386169904183 0 0 0
7692 50 1 3.970260329231982 5.035635823025644 21.480924888165347 0 0 0
8817 57 1 7.764549549248878 16.050985543948283 20.126815836728472 0 0 0
843 8 1 6.494335587112564 9.979049930664958 9.753761035980533 0 0 0
7899 31 1 4.069493115119026 7.155340603528073 11.281285177037674 1 0 0
4484 28 1 14.407007515909049 23.522692995108514 6.124290682432082 0 0 0
4485 28 1 14.18514448720318 23.488815997656584 7.626428679609451 0 0 0
4565 22 1 18.530469056953724 25.59514628772881 3.8506729855872335 0 0 0
2283 56 1 6.348646322022707 25.412105175078953 0.2736203369180006 0 0 1
4721 29 1 15.8385282216474 25.737343250653396 1.0055299745714061 0 0 1
7898 31 1 2.7827669170551568 7.283758216525921 10.496206301850064 1 0 0
4026 28 1 11.536988896560102 19.24244673093095 0.5966173238134668 0 0 0
9195 60 1 5.84792978718027 20.30386783417152 16.410093666040325 0 0 0
8898 44 1 2.818782969959568 18.26083252953017 19.920893614071392 0 0 0
9194 60 1 4.807483585127307 20.954710148536876 15.470094283394385 0 0 0
4038 28 1 18.482375340729046 18.384201001609252 14.02567604671102 0 0 0
3649 22 1 17.060075741174 14.137748616700623 10.913536971953208 0 0 0
4035 28 1 17.192446559632838 18.744517410687717 10.408280299982781 0 0 0
7691 50 1 4.080293538600733 4.547233299579479 20.05287995370932 0 0 0
9283 61 1 2.394241211521358 23.127394039688358 18.70534765799092 0 0 0
9501 51 1 4.1641494026346795 25.07685035828424 11.74490985001838 0 0 0
8816 57 1 7.909029850600999 16.034575543009296 18.620639151413204 0 0 0
3205 19 1 18.40738269664074 9.579250155808845 14.358417536391727 0 0 0
3651 22 1 18.259558285588856 14.251962259183546 13.093686358664893 0 0 0
4037 28 1 18.386567366438573 18.67376738261289 12.517481802343857 0 0 0
9498 51 1 1.4250292900911683 25.113795177873037 8.892110768741832 0 0 0
845 8 1 7.685735177185713 9.666892792186717 12.024414201911519 0 0 0
9188 60 1 1.4103029654416022 21.24767089808534 8.75023629521944 0 0 0
7687 50 1 1.713236807832188 4.8749739935966545 15.50311803722937 0 0 0
1469 11 1 17.369013991908307 16.195842792597333 19.225864434313802 0 0 0
4406 24 1 15.976633869051543 20.909461144621385 0.8301943569564818 0 0 0
9198 60 1 7.394946905265682 21.19375146715457 20.017350826832555 0 0 0
850 8 1 11.050131034850587 9.80540982650271 17.23941670586244 0 0 0
2817 9 1 17.283846795679196 5.5887323064547205 10.332029128058966 0 0 0
1533 11 1 7.644630817623048 17.278522879552483 2.7326496539374814 0 0 0
8129 39 1 1.3753174274406246 9.480504266548945 17.026668558506145 0 0 0
9192 60 1 3.804663158097086 21.17707809519637 13.168519424017905 0 0 0
2360 14 1 8.65460849889495 25.964612893482265 3.4187387983992132 0 0 0
1224 61 1 13.318334214098089 13.631865474037099 22.716360638155543 0 0 0
4564 29 1 13.462635009609146 23.50025300690363 3.7877120414791703 0 0 1
614 6 1 18.437725505475296 7.792744684124237 21.5240373423465 0 0 0
9190 60 1 2.6305256709731855 21.252189033777427 11.014721321727292 0 0 0
9193 60 1 4.84713460387696 20.477032331153282 14.050163468381449 0 0 0
826 6 1 11.221397865506766 7.606286491589809 8.136946519932676 0 0 0
849 8 1 9.728237498891597 9.572732324775547 16.558002870239154 0 0 0
855 8 1 13.59525629637729 9.417600331930283 23.040722742831196 0 0 0
853 8 1 12.429392327022523 9.125379710105538 20.848031441166622 0 0 0
7304 48 1 1.9891726226373103 0.36130815605031386 17.54078189656167 0 0 0
7305 48 1 3.3122564913210897 0.646249150806968 18.19241396372884 0 0 0
7306 48 1 3.434163021057508 0.2455588879909089 19.678803640310697 0 0 0
7307 48 1 4.695347568652387 0.5701606882275739 20.42672797116491 0 0 0
7604 48 1 9.115052024253098 2.9321618769817976 20.69041138224204 0 0 0
2297 14 1 18.40558163336437 25.39265775387514 21.542851822501206 0 0 0
7606 48 1 10.258048668958546 3.0525969187842055 23.050272703927867 0 0 0
9286 61 1 3.8932320616497127 22.394172282403787 22.347597079138975 0 0 0
1146 9 1 16.050628915786973 11.053033293576279 18.567715468301756 0 0 0
9187 60 1 1.403899635714919 20.545884238571418 7.379988544583608 0 0 0
8901 44 1 5.532551400106723 18.736804735158042 22.702339148425033 0 0 0
852 8 1 12.411448349625168 9.51963065294448 19.33766001897142 0 0 0
7595 48 1 2.840727794367586 2.7073449746365763 10.84141877603157 0 0 0
7596 48 1 4.137964139722253 3.1679063892088584 11.537172173179911 0 0 0
7597 48 1 4.185032538924471 2.8879858149125974 13.044319650050596 0 0 0
7598 48 1 5.529476643742613 3.2120312970813387 13.776494817198747 0 0 0
7599 48 1 5.502621620413827 2.8902257905929645 15.201940662437847 0 0 0
7600 48 1 6.7402540196983765 3.1398826865724887 16.046180937222324 0 0 0
7601 48 1 6.550789964380884 3.0657438900724796 17.609438651216887 0 0 0
7602 48 1 7.877236870444314 3.0572467475203107 18.392822886727135 0 0 0
7603 48 1 7.8509339463285945 2.9339134719638262 19.91765398830664 0 0 0
3652 22 1 18.251643132970752 13.803513827839199 14.583683415861213 0 0 0
8514 60 1 1.7475408206636427 13.819534832453563 17.488679930092932 0 0 0
4970 33 1 0.9730081282682628 2.977668395342374 22.607247623358717 0 0 0
8515 60 1 3.0601760864054857 13.915006218376153 18.309275525603947 0 0 0
9506 51 1 6.491627245468059 24.765776203572553 17.684795610525587 0 0 0
9197 60 1 7.113985106714085 20.499512345279488 18.683619205494495 0 0 0
844 8 1 7.810944560132161 10.02995900300545 10.54353977877228 0 0 0
2818 9 1 16.968643017233205 5.667934590195536 11.795813313787752 0 0 0
315 6 1 16.171335645217386 3.017315925418857 18.4230783681785 0 0 0
9284 61 1 2.73487381568235 22.277084822940633 19.997337986631397 0 0 0
1209 9 1 7.231855163908629 12.330952822896114 0.4175414902133121 0 0 0
1285 61 1 3.140230503967015 14.353861768280751 2.3751553102215732 0 0 0
8130 39 1 2.6732921308422943 9.120487211791524 17.885231800067935 0 0 0
7688 50 1 1.8089472251926653 5.191773847665139 16.94174255797382 0 0 0
7689 50 1 3.059748512944487 4.7101052962618235 17.758653220854736 0 0 0
8818 57 1 9.085844185674596 16.366765984462482 20.86129962781176 0 0 0
9191 60 1 3.730586963452564 20.608498053041863 11.755998625661508 0 0 0
1773 45 1 18.64109678693126 20.710608514096766 20.90996720239019 0 0 0
1531 11 1 6.419701708879498 16.995086664706346 0.5547711397374413 0 0 0
7900 31 1 3.917434637557194 6.998912533381399 12.823211248046933 0 0 0
7902 31 1 4.926853580161719 6.7569751913371014 15.13198908565678 0 0 0
7903 31 1 6.061709900417233 7.304794002171019 16.06137398595266 0 0 0
7904 31 1 5.903742686833677 7.083297763536303 17.547647740983756 0 0 0
7905 31 1 7.235810577306714 7.299071674762373 18.380858492660103 0 0 0
7906 31 1 7.26398415383432 6.951623735117564 19.768297377685016 0 0 0
7907 31 1 8.621306547355578 7.061816341533524 20.52412661724371 0 0 0
7908 31 1 8.44668882233934 6.937607753200306 22.010283330689173 0 0 0