LAMMPS data file via write_data, version 23 Jun 2022, timestep = 1000

8487 atoms
2 atom types
8471 bonds
3 bond types
8455 angles
3 angle types
8439 dihedrals
3 dihedral types

0 36.89775039 xlo xhi
0 26.67072 ylo yhi
0 236.7516044 zlo zhi
0 7.448720975 0 xy xz yz

Masses

1 14
2 15

Pair Coeffs # lj/cut/omp

1 0.0914 3.95
2 0.1947 3.75

Bond Coeffs # harmonic/omp

1 449.5 1.53
2 449.5 1.53
3 449.5 1.53

Angle Coeffs # harmonic/omp

1 62.0967 114
2 62.0967 114
3 62.0967 114

Dihedral Coeffs # opls/omp

1 1.411 -0.271 3.145 0
2 1.411 -0.271 3.145 0
3 1.411 -0.271 3.145 0

Atoms # molecular

1 3 1 7.138386163539664 1.4107769512712995 8.73093806123262 0 0 0
2 3 1 8.444631090629702 1.0461457678956378 9.475317063123983 0 0 0
3 3 1 8.3804235944748 1.4882644792522326 10.963170682504384 0 0 0
4 3 1 9.654586537116803 1.149824314619358 11.761496062520308 0 0 0
5 3 1 9.822301926128814 1.7088778099285984 13.141735647929664 0 0 0
6 3 1 11.087558417513455 1.2916767004494711 13.865492612741427 0 0 0
7 3 1 11.209188467136654 1.6409162747707815 15.365539855522444 0 0 0
8 3 1 12.556279009318725 1.3259307202963757 15.937117635530276 0 0 0
9 3 1 12.79510009884093 1.7849177465761024 17.356855867582954 0 0 0
10 3 1 14.161273829043838 1.424281199194034 18.005898395820743 0 0 0
11 3 1 14.20710089110546 1.7158947639489657 19.487957444748016 0 0 0
12 3 1 15.566674659579483 1.5043459211590526 20.12320693042973 0 0 0
13 3 1 15.71727353664809 1.8921687448802147 21.56296958114395 0 0 0
14 3 1 16.912174388510103 1.2920162895109653 22.264405316430164 0 0 0
3722 22 1 18.39024840304893 20.5744979452356 3.76840761499816 0 0 0
2361 34 1 11.818332593518475 0.4391331656317695 1.042477794679462 0 0 0
218 3 1 2.9357779514139617 1.1972879139144639 0.6984758898136108 0 0 0
219 3 1 3.0540197335191785 1.2566504795779816 2.2289342317275787 0 0 0
220 3 1 4.484868235635923 1.259739016912202 2.7344181968163648 0 0 0
221 3 1 4.606320606011833 1.2040952477969438 4.255556390775476 0 0 0
222 3 1 6.044044775704805 0.9721744944420931 4.854237998857074 0 0 0
223 3 1 5.990673134922483 1.3054984045135778 6.371320440826065 0 0 0
224 3 1 7.242976520569449 1.145268417073379 7.22069415825152 0 0 0
262 1 1 10.531278242855628 3.4364703609732925 6.221806439244539 0 0 0
263 1 1 11.78937150554157 2.8961913231650205 6.806045210546617 0 0 0
264 1 1 11.831834663683136 3.2389980432100467 8.311801152131729 0 0 0
265 1 1 13.17685725815458 2.9428213527901144 8.963467027341661 0 0 0
266 1 1 13.19446790799137 2.9478151870602165 10.447891150031035 0 0 0
267 1 1 14.506531311658568 3.4367395294312097 11.096911587426526 0 0 0
268 1 1 14.447451657760455 3.323639021003348 12.644621386436516 0 0 0
269 1 1 15.76502900933627 3.671721161411014 13.320878287996452 0 0 0
270 1 1 15.836464147974752 3.1972305948557955 14.769597439409813 0 0 0
271 1 1 17.17970574407239 3.6508155017941 15.481576036803373 0 0 0
272 1 1 17.334685990225314 3.306078207747467 16.940525430431382 0 0 0
436 21 1 18.771480709200368 7.409691709768975 19.143124788852244 0 0 0
3424 58 1 18.469322327441976 16.52409427176801 3.4736788800434963 0 0 0
301 1 1 7.534666057874899 3.241383278956397 0.5096735164283461 0 0 0
302 1 1 7.561495603180967 3.486136893141889 2.002938304552738 0 0 0
303 1 1 8.972318512990784 3.4383192639992406 2.6491843624105473 0 0 0
304 1 1 9.031299192714428 3.57145315217599 4.180652106461564 0 0 0
305 1 1 10.39000903554318 3.188831284352315 4.748137323178003 0 0 0
306 5 1 7.183817018541818 6.023185954607354 8.696322869886998 0 0 0
307 5 1 8.48158063641758 5.685248822174438 9.428853443989045 0 0 0
308 5 1 8.449268106758963 5.820103371394445 10.928030802221265 0 0 0
309 5 1 9.793192262340082 5.454940908753958 11.588314887100932 0 0 0
310 5 1 9.948517278413956 6.020900677708506 12.99187351542765 0 0 0
311 5 1 11.303234679472064 5.906709483374729 13.640137201391557 0 0 0
312 5 1 11.376648881159356 6.03485101289155 15.207390795191225 0 0 0
313 5 1 12.65317600901087 5.514378886163749 15.80001319256478 0 0 0
314 5 1 12.784282616543743 5.697065171012809 17.348012961423795 0 0 0
315 5 1 14.179373297516351 5.524374560737384 17.89099083831895 0 0 0
316 5 1 14.264511658121352 5.74989094624873 19.38782596609344 0 0 0
317 5 1 15.633121957349218 5.935943495628831 20.00825382213625 0 0 0
318 5 1 15.542358912279878 5.919767479436781 21.584951032887904 0 0 0
319 5 1 16.85766548419841 6.134394798608129 22.3243896310415 0 0 0
2147 34 1 18.535744759412133 0.9369166676531466 11.991439514172967 0 0 0
8062 45 1 4.925435570110563 23.80029888993668 19.03984735357416 0 0 0
380 5 1 2.7900428126862664 5.133441795299544 0.8824529079568669 0 0 0
381 5 1 2.946425199146695 5.578479117588417 2.342962405424156 0 0 0
382 5 1 4.392123129115357 5.406202258177386 2.922724632666159 0 0 0
383 5 1 4.658257034935674 5.927315263013558 4.326562919764444 0 0 0
384 5 1 5.95850275233376 5.6053691317822 5.043243277839059 0 0 0
385 5 1 5.861165645190824 5.950434353744336 6.518914927641632 0 0 0
386 5 1 7.131086989613298 5.464521411258519 7.310769529535364 0 0 0
424 21 1 10.472400739184415 7.346818940857427 6.276015074143352 0 0 0
425 21 1 11.444673932509524 8.042314771690393 7.20503719743048 0 0 0
426 21 1 11.768343026621448 7.425683536916564 8.6010066348846 0 0 0
427 21 1 12.736518531024627 8.264142782208214 9.446744772261955 0 0 0
428 21 1 13.174915160254255 7.619798135761664 10.67472164326771 0 0 0
429 21 1 14.116795850514789 8.53006680177913 11.447242994554102 0 0 0
430 21 1 14.743192380241 7.735366614317704 12.57282136824758 0 0 0
431 21 1 15.874235104977448 8.356426160943656 13.349428110638675 0 0 0
432 21 1 16.030975719832234 7.731664318840698 14.75679050201074 0 0 0
433 21 1 17.247875572216678 8.243615898902537 15.563890346524783 0 0 0
434 21 1 17.325468576043495 7.564000146029259 16.949514329867856 0 0 0
3084 18 1 11.962674540350465 9.701447521210907 0.7470362311831129 0 0 0
4020 15 1 17.909598863216083 25.049152822381675 3.9201246361361446 0 0 0
643 21 1 7.335019363797969 7.998654338375021 0.62578744506691 0 0 0
644 21 1 7.502699977225813 7.595423116327331 2.0838600014478477 0 0 0
645 21 1 8.81129188549183 8.02037430910599 2.6614158802767376 0 0 0
646 21 1 9.124855063454055 7.399496520162141 4.0346291143615325 0 0 0
647 21 1 10.210586164444921 8.105562526411463 4.93066274269335 0 0 0
648 3 1 7.049073266384184 10.014151453055568 8.289141512356174 0 0 0
649 3 1 8.331175113273888 9.661087433293332 9.02885438432452 0 0 0
650 3 1 8.362258101306901 9.947477464130419 10.533645067939833 0 0 0
651 3 1 9.653750739919362 9.662765530719328 11.25296142531778 0 0 0
652 3 1 9.82433326047121 10.158204646608135 12.671492583330032 0 0 0
653 3 1 11.058471959525427 9.716090023885984 13.423915237485687 0 0 0
654 3 1 11.305391473573904 10.345235947591494 14.785935536145656 0 0 0
655 3 1 12.447649127818513 9.7506579943235 15.58775622742302 0 0 0
656 3 1 12.874676254852586 10.436158060490817 16.867499979569303 0 0 0
657 3 1 13.942585936468133 9.741084301869297 17.614488257905276 0 0 0
658 3 1 14.343886683854825 10.555791833053023 18.837398869335836 0 0 0
659 3 1 15.471076738733592 9.9718952756436 19.644337730640387 0 0 0
660 3 1 15.571287159620447 10.628745817413911 21.046779710930284 0 0 0
661 3 1 16.79886792272338 10.187265523936704 21.83654178818352 0 0 0
662 3 1 16.82393023022458 10.514238033439339 23.346236979430667 0 0 0
1928 63 1 18.768361968923408 25.37085552239263 19.396502722306835 0 0 0
865 3 1 2.816637288472384 9.73377089807227 0.37535153200701066 0 0 0
866 3 1 2.905960184176195 9.964526993181929 1.8689008284749524 0 0 0
867 3 1 4.2970596604855364 9.763604204812992 2.449572483008814 0 0 0
868 3 1 4.496187726199986 10.282048970958906 3.8685520619605263 0 0 0
869 3 1 5.873464035547518 9.945594057061014 4.50473641695862 0 0 0
870 3 1 6.00469420402998 10.310121345972563 5.997780149949156 0 0 0
871 3 1 7.201963398104268 9.730898279454275 6.784825163195797 0 0 0
909 9 1 10.27705378051955 11.90355460254693 5.911492142299998 0 0 0
910 9 1 11.4320481545681 12.547567765482317 6.6757975752928935 0 0 0
911 9 1 11.471660183194729 11.988556733923307 8.10314959010475 0 0 0
912 9 1 12.845356388119285 12.303585303002833 8.721238322664478 0 0 0
913 9 1 12.951218851782656 12.056541643210037 10.280725429605976 0 0 0
914 9 1 14.315878915699246 12.476876723044509 10.84818221347972 0 0 0
915 9 1 14.381230915784458 12.290257588576134 12.349009787660135 0 0 0
916 9 1 15.70456600826175 12.700973840800533 12.97720977305141 0 0 0
917 9 1 15.902001902041947 12.293908657466993 14.44085170788828 0 0 0
918 9 1 17.216272693658006 12.554259926144018 15.13940681236773 0 0 0
919 9 1 16.992347154833578 12.449574819332119 16.652871824435948 0 0 0
920 9 1 18.293203307963246 12.825830309831677 17.44765072019488 0 0 0
1181 12 1 18.57448780318317 16.869230750543434 17.246519528732048 0 0 0
7557 12 1 0.1692494761623753 16.73148921689468 3.0383468458122893 1 0 0
942 9 1 7.63108473310825 12.053004185142779 1.511032555201514 0 0 0
943 9 1 8.896667298479823 12.360033885368988 2.2667545993239266 0 0 0
944 9 1 8.929385903674431 11.715637939723276 3.6667295118816905 0 0 0
945 9 1 10.228233509389678 12.25110003095461 4.400392756190572 0 0 0
946 10 1 6.9557562049066055 14.218334149755457 7.744854170067877 0 0 0
947 10 1 8.190078360953425 13.738029633734277 8.510712188542588 0 0 0
948 10 1 8.121303995499737 14.042483227945096 10.015938810518657 0 0 0
949 10 1 9.52585036118914 14.12558914529702 10.572540014693903 0 0 0
950 10 1 9.590029258326028 14.422965236671553 12.03923052544337 0 0 0
951 10 1 10.951909292272893 14.178102601408854 12.728539292847326 0 0 0
952 10 1 11.030363945768496 14.74105618773521 14.084367490240545 0 0 0
953 10 1 12.24701600615452 14.32596937686463 14.980868530169346 0 0 0
954 10 1 12.41406987401237 15.022837165879384 16.36332055936628 0 0 0
955 10 1 13.574450830770964 14.570784058203587 17.194491543314836 0 0 0
956 10 1 13.636117695095997 15.09058901162883 18.62056026657404 0 0 0
957 10 1 14.806823808370492 14.568824966891919 19.395719868405486 0 0 0
958 10 1 14.989049024510756 15.003145880765791 20.882410084790507 0 0 0
959 10 1 16.3045396363927 14.662973206642594 21.55003012530017 0 0 0
960 10 1 16.463183084892837 15.11815706134257 22.996243518301874 0 0 0
8280 62 1 3.709750464534332 25.786923344719654 10.582905138807275 0 0 0
423 54 1 1.5656963736015828 5.698544988923897 0.2410563661148266 0 0 1
1164 10 1 2.846133124265598 14.419868405845898 1.276141096131674 0 0 0
1165 10 1 4.09806697908118 14.326388637550163 2.0522197277857974 0 0 0
1166 10 1 3.9872879869854763 14.454431084132757 3.5870955357316685 0 0 0
1167 10 1 5.305593145542039 14.019164399913983 4.217864323957303 0 0 0
1168 10 1 5.528977023015077 14.39692184214347 5.679526580205116 0 0 0
1169 10 1 6.817026266695954 13.819146989082327 6.2900889978995025 0 0 0
1170 12 1 10.080782171546153 16.344504015909976 5.788833521282704 0 0 0
1171 12 1 11.431515933541641 16.360156157942278 6.50305871679195 0 0 0
1172 12 1 11.412564424103183 16.57370041542994 8.033520504794268 0 0 0
1173 12 1 12.735304000210915 16.326658210719636 8.7959843411789 0 0 0
1174 12 1 12.845422904642565 16.810165237955157 10.214466938122282 0 0 0
1175 12 1 14.201626684344925 16.588167263740495 10.848280215700381 0 0 0
1176 12 1 14.385694368994365 16.98133537455991 12.322460366340207 0 0 0
1177 12 1 15.694498857604566 16.550994469063372 12.943144834997906 0 0 0
1178 12 1 15.786794718703996 16.895730538986047 14.46472295045552 0 0 0
1179 12 1 17.057901160569273 16.510185385975127 15.258877413318507 0 0 0
1180 12 1 17.17211840380563 17.00106782450735 16.666598131865893 0 0 0
8061 45 1 4.697268211341471 23.193059657863014 17.657765400734732 0 0 0
8058 45 1 1.9379870017230179 23.653213224964254 14.851719459316037 0 0 0
3503 9 1 18.79295297467553 18.361047514751064 11.206335289155776 0 0 0
1390 12 1 7.388384409874593 16.45182324560294 1.4136641360458957 0 0 0
1391 12 1 8.76498984152571 16.41988120257573 2.0700582538328076 0 0 0
1392 12 1 8.759830372922625 16.555125880128845 3.586138142496106 0 0 0
1393 12 1 10.091789195104091 16.277574972770946 4.264721818788202 0 0 0
1394 15 1 6.908862359578089 19.009705676952596 8.128428801235588 0 0 0
1395 15 1 7.993498600202357 18.487639762708337 9.006109260875485 0 0 0
1396 15 1 8.247132495491009 19.270924814458457 10.240849838764483 0 0 0
1397 15 1 9.301783528245782 18.63819105771537 11.138554393491003 0 0 0
1398 15 1 9.591084525587068 19.419988395559145 12.41465123890566 0 0 0
1399 15 1 10.613300305826334 18.705283274039573 13.298285285785505 0 0 0
1400 15 1 10.959508722647511 19.388223106261854 14.627591930639438 0 0 0
1401 15 1 12.20025443823161 18.84735896384343 15.320700541208147 0 0 0
1402 15 1 12.589265853935666 19.52194376267572 16.65644364591893 0 0 0
1403 15 1 13.771565105425923 18.82518707283999 17.42432366538969 0 0 0
1404 15 1 13.778503582770075 19.11807538306497 18.95060310439524 0 0 0
1405 15 1 15.079009616888879 18.83433229199379 19.61052201625063 0 0 0
1406 15 1 15.197976881601075 19.256233000700565 21.11835016943411 0 0 0
1407 15 1 16.46613333270398 18.723981326965415 21.882577071336847 0 0 0
1408 15 1 16.401225885923772 19.231319815399285 23.31646036144928 0 0 0
8279 62 1 3.5865312198628847 25.94582731441709 9.048308655425883 0 0 0
1611 15 1 2.874704867977831 18.08856293719902 0.2282785858915746 0 0 0
1612 15 1 3.3154091150578444 19.080827500203256 1.3269589060581208 0 0 0
1613 15 1 4.038333882374015 18.34018971945067 2.427724571484821 0 0 0
1614 15 1 4.395648143637689 19.085446041871236 3.7058843472608323 0 0 0
1615 15 1 5.502583043203877 18.39455833410035 4.5220175049207105 0 0 0
1616 15 1 5.813220935220709 19.04164158163448 5.863927225236844 0 0 0
1617 15 1 6.768867734900137 18.271701428137938 6.8158046375113095 0 0 0
1655 16 1 10.434845037069255 21.17461305943383 6.066917676066558 0 0 0
1656 16 1 11.596942133045577 20.562494867501677 6.836537176306002 0 0 0
1657 16 1 11.451387103009152 20.85147418713391 8.308607764528439 0 0 0
1658 16 1 12.701703382691528 20.50895404499698 9.094272274171752 0 0 0
1659 16 1 12.715544851888591 20.909398162870044 10.554149458107544 0 0 0
1660 16 1 14.127684608657685 20.771653141782668 11.206852606145096 0 0 0
1661 16 1 14.206128355669325 21.349919737218904 12.588302973175484 0 0 0
1662 16 1 15.441764883447474 20.927300809422746 13.326185774488623 0 0 0
1663 16 1 15.521653100128384 21.657675767606147 14.682301239835457 0 0 0
1664 16 1 16.607985559542364 21.101904777851292 15.539543069897475 0 0 0
1665 16 1 16.751311428417996 21.60059230638595 16.98499489137519 0 0 0
435 21 1 18.59010551158781 7.920736860455865 17.724848825807435 0 0 0
8060 45 1 3.433746897211986 23.661553390003466 16.919123497207067 0 0 0
1687 16 1 7.488603454603612 20.448765135554613 0.42793757758998724 0 0 0
1688 16 1 7.848390180782603 21.23262552891437 1.7449646838614137 0 0 0
1689 16 1 8.708318531219689 20.38605047941925 2.668626402183532 0 0 0
1690 16 1 9.113737253326642 21.085303646219064 3.9569374648119946 0 0 0
1691 16 1 10.356892609355048 20.640170767794306 4.6790245600935485 0 0 0
1692 64 1 7.392408616040412 24.008065074205877 7.561147626118822 0 0 0
1693 64 1 8.254626837320686 23.20648534702996 8.527772293559371 0 0 0
1694 64 1 8.540766439980528 23.854397547821485 9.889275674512511 0 0 0
1695 64 1 9.533206014647938 23.126676395587012 10.83939186377987 0 0 0
1696 64 1 9.71253054395628 23.82400566549658 12.20986119588298 0 0 0
1697 64 1 10.659434412891114 23.101996613532247 13.178315846050053 0 0 0
1698 64 1 10.946749158843808 23.946674879557037 14.38184736792477 0 0 0
1699 64 1 11.928085103429016 23.270871444649682 15.350719520795678 0 0 0
1700 64 1 12.342623891626673 24.090722157820654 16.527413154406478 0 0 0
1701 64 1 13.289397238576171 23.260159439460946 17.443321231308907 0 0 0
1702 64 1 13.77919894251295 24.08123591237544 18.652320366536223 0 0 0
1703 64 1 14.547071029170164 23.195853860433843 19.670193276221 0 0 0
1704 64 1 15.192928056459008 24.043428672451032 20.767158744463323 0 0 0
1705 64 1 15.900910280715006 23.115209231903155 21.790544681052523 0 0 0
274 1 1 18.849287717079534 3.4499941009921335 19.048185558957478 0 0 0
8278 62 1 2.2279388057337055 25.573649729937184 8.474929241378877 0 0 0
1909 64 1 2.5103825837452987 23.18676523285361 0.13837337340402509 0 0 0
1910 64 1 2.7227996150352376 24.01710303627495 1.4494034877128257 0 0 0
1911 64 1 3.9076777333393 23.380008022258735 2.170935380282419 0 0 0
1912 64 1 4.342621467829249 24.06818137964384 3.44439590056917 0 0 0
1913 64 1 5.444101456396788 23.339523083711107 4.228304611861593 0 0 0
1914 64 1 5.927039444467162 24.032080005537892 5.515446540486765 0 0 0
1915 64 1 6.883148545765879 23.158171076225006 6.3845667302694595 0 0 0
1916 63 1 11.136636638349305 24.912793254700055 6.164048768284909 0 0 0
1917 63 1 11.498848408498358 25.745940083060475 7.3874255092111945 0 0 0
1918 63 1 12.421665944332593 25.020694628429762 8.280824063407568 0 0 0
1919 63 1 12.854503119576961 25.79615628703947 9.556154469936564 0 0 0
1920 63 1 13.745801152859105 25.030795958973233 10.489859883565583 0 0 0
1921 63 1 14.344741439648061 25.84543006026035 11.594945685958647 0 0 0
1922 63 1 15.010036863039424 25.121322941758944 12.766660673490835 0 0 0
1923 63 1 15.666015890544324 26.05430367939666 13.746148148568663 0 0 0
1924 63 1 16.400937547816522 25.31724747741388 14.825694697362293 0 0 0
1925 63 1 17.02815575118805 26.170037247329702 15.95297875118913 0 0 0
1926 63 1 17.358714240501513 25.443393360401924 17.290261000430572 0 0 0
8059 45 1 3.3275473367929433 23.248137333004415 15.439425462889067 0 0 0
8282 62 1 5.104622113801553 25.678599795515055 12.709933732384341 0 0 0
2135 63 1 7.295521937253068 26.043880265162567 0.9510908056258953 0 0 0
2136 63 1 8.125877695948574 25.1953777130637 1.94097467276603 0 0 0
2137 63 1 8.811274437920725 25.85010465150818 3.0882736589748 0 0 0
2138 63 1 9.549445516112502 24.908694450432844 4.00487965134041 0 0 0
2139 63 1 10.299442614973414 25.62599409521253 5.111289329144947 0 0 0
2140 34 1 14.352104476915688 1.4518871759015544 4.058702428024401 0 0 0
2141 34 1 14.7403133796453 0.650245748201556 5.328018575695917 0 0 0
2142 34 1 15.806795331406288 1.3483538223947793 6.1721718178797165 0 0 0
2143 34 1 16.314018223128333 0.5579697503250071 7.417345946546541 0 0 0
2144 34 1 16.8806575310887 1.5275848223502781 8.449980000642578 0 0 0
2145 34 1 17.2212304633324 0.829590926107452 9.719252241872008 0 0 0
2146 34 1 18.108258009731383 1.6013161493739207 10.696196518071233 0 0 0
6405 62 1 0.48144566951730794 0.7223517663412823 11.659661174767093 0 0 0
2362 34 1 12.873204222485722 1.1543076226456095 1.8841946038805608 0 0 0
2363 34 1 13.432709950540065 0.5767102806834059 3.186839628863328 0 0 0
2364 21 1 17.011467267540862 3.0954760173057987 1.516950277293564 0 0 0
2365 21 1 17.844929558469214 3.949866817559342 2.4179144652839524 0 0 0
8288 62 1 9.166661651818917 25.682940970632803 19.21357994892235 0 0 0
2587 21 1 16.47535189954215 3.7856860923927176 0.2712078864380804 0 0 0
2588 22 1 13.394635623880555 5.661350222755983 4.178826055811154 0 0 0
2589 22 1 14.685929820345786 5.077184476737818 4.847634590446642 0 0 0
2590 22 1 14.900776514267454 5.68954294997049 6.248907051286884 0 0 0
2591 22 1 16.10093994937937 5.165488485115637 6.967485195401356 0 0 0
2592 22 1 16.29664178617455 5.677790407566586 8.415221322215267 0 0 0
2593 22 1 17.64465247981186 5.4507102149991296 9.067930091321406 0 0 0
2594 22 1 17.895006947248714 6.120322191376841 10.43494296526372 0 0 0
2809 22 1 11.829145589049904 5.439343255155569 0.6382627359866857 0 0 0
2810 22 1 12.090073371307026 5.900226091511342 2.0698184217807207 0 0 0
2811 22 1 13.412862535564306 5.395669026422668 2.6866530358643694 0 0 0
2812 24 1 16.652918101910135 7.660320267258661 1.740082938473315 0 0 0
2813 24 1 17.930217791845934 8.025032101194732 2.4175824484234174 0 0 0
2814 24 1 18.033510901565936 7.758591348535782 3.9305869594655065 0 0 0
3035 24 1 16.575572827046365 8.119127999762664 0.3144858946591093 0 0 0
3036 18 1 13.876892721537251 10.359747476048616 4.151343196038941 0 0 0
3037 18 1 14.700849541054103 9.429969083273466 4.982899284487188 0 0 0
3038 18 1 15.191459868294908 10.276505397389633 6.1803274872117075 0 0 0
3039 18 1 16.19553807322991 9.59050938223726 7.146134871262007 0 0 0
3040 18 1 16.608973446127788 10.431560350776353 8.325039749124283 0 0 0
3041 18 1 17.721992541215343 9.840947333482006 9.184707529786108 0 0 0
3042 18 1 18.11021285431695 10.485570711889785 10.522265190881505 0 0 0
1927 63 1 18.206363012778127 26.252729595674833 18.281955595110276 0 0 0
3085 18 1 12.547623356343657 10.52126267203022 1.9117399597234357 0 0 0
3086 18 1 13.497660602018584 9.694063056393544 2.802055687723447 0 0 0
3124 27 1 16.999706754499776 11.86725184749795 1.3068189904840395 0 0 0
3125 27 1 18.159713108416014 12.55174885500814 2.098714913074478 0 0 0
3126 27 1 18.311309653991454 12.128419343630371 3.590587846334056 0 0 0
1666 16 1 17.937902703989778 21.061851941716863 17.779915019759724 0 0 0
3348 28 1 13.731181196362934 14.345672297133987 3.9183176388293335 0 0 0
3349 28 1 15.1218346915011 13.978620564616241 4.413443624319864 0 0 0
3350 28 1 15.088614816322824 14.273509896714948 5.9033731998615195 0 0 0
3351 28 1 16.379298287456365 13.945352155214803 6.647066309174639 0 0 0
3352 28 1 16.467040067047147 14.359188162907628 8.118685483350047 0 0 0
3353 28 1 17.755451921723832 14.080402526733957 8.933336063648813 0 0 0
3354 28 1 17.705665628468655 14.608139047128818 10.410251855187875 0 0 0
6848 51 1 0.4354804586815313 5.11538436295601 11.354442762390057 0 0 0
3383 28 1 12.210652140560256 14.536617585295225 1.7925005797385787 0 0 0
3384 28 1 13.5634986915713 14.117293926929666 2.389559998803966 0 0 0
3422 58 1 17.108266400781464 16.60641402647216 1.4111429987873658 0 0 0
3423 58 1 18.437430678998453 17.042399224966953 2.0697014487742056 0 0 0
8287 62 1 9.179340659224806 25.93961834217752 17.718682182206713 0 0 0
2366 21 1 18.115977846232934 3.351018992110645 3.816799579294079 0 0 0
3496 9 1 13.591683166275512 18.66989021418682 3.780428594074883 0 0 0
3497 9 1 14.981127233066674 18.545323108496426 4.488331535922208 0 0 0
3498 9 1 15.013277789624516 18.46806967367183 6.046923008990877 0 0 0
3499 9 1 16.366071718985918 18.711945673867064 6.660257198620743 0 0 0
3500 9 1 16.32893472525485 18.556688923408732 8.169988446707466 0 0 0
3501 9 1 17.69356009731327 18.471010938061983 8.868830312782483 0 0 0
3502 9 1 17.550226202169178 18.723407038870445 10.385588676480218 0 0 0
3717 9 1 12.06600366276802 18.53417681383282 0.17362609651899324 0 0 0
3718 9 1 12.170928436637729 18.645031157271582 1.745906851737107 0 0 0
3719 9 1 13.560585178673223 18.395251282333717 2.2929400193706235 0 0 0
3720 22 1 16.867909457835484 20.784565333244153 1.6153579497617905 0 0 0
3721 22 1 18.153463237611643 21.117054468903454 2.3430768667402035 0 0 0
1182 12 1 18.664248412052128 17.275456885529902 18.689503545493455 0 0 0
3756 22 1 16.680096840687014 21.495652014655345 0.28447204072448634 0 0 0
3794 34 1 13.392383751780427 22.93994896968394 4.012019923994593 0 0 0
3795 34 1 14.799952475630214 22.821117432986423 4.749585227806528 0 0 0
3796 34 1 14.681026377468465 22.92531123361498 6.24050956122972 0 0 0
3797 34 1 16.04207427708838 22.66328641641474 6.992986866939734 0 0 0
3798 34 1 16.025572622037217 22.95486180641906 8.486675520763091 0 0 0
3799 34 1 17.321047233966063 22.62666216186765 9.161852761283448 0 0 0
3800 34 1 17.543829202028025 23.335178971704792 10.497316501266212 0 0 0
4015 34 1 12.041344051452722 22.770882893026478 0.21378139452967676 0 0 0
4016 34 1 12.007702428783045 22.700891609550254 1.803613499764862 0 0 0
4017 34 1 13.393491600836741 22.69058923607969 2.4858805304689926 0 0 0
4018 15 1 16.279506413961208 24.99988716771387 1.8682263542808852 0 0 0
4019 15 1 17.407317024687117 25.70090045612844 2.6258649105603236 0 0 0
8057 45 1 1.8525774968319708 23.142244279061067 13.411831113816444 0 0 0
4241 15 1 15.838698229974876 25.78470991831554 0.599926435711224 0 0 0
4358 49 1 1.3729637281811382 3.6124600482422546 19.717984781536003 0 0 0
4359 49 1 1.4607162600974641 3.2752463024165634 21.15982474883438 0 0 0
4360 49 1 2.688134836753775 3.842925630132978 21.9253577654628 0 0 0
4361 49 1 2.8702277698601897 3.3076651251141285 23.33501141529119 0 0 0
8055 45 1 0.3694585265956715 22.992420316049234 11.4071327831169 0 0 0
4803 27 1 1.1239706982009974 8.149640744708973 19.933920756698797 0 0 0
4804 27 1 1.4145847416826003 7.56111480734613 21.274982814492166 0 0 0
4805 27 1 2.551836978306017 8.210879580096234 22.02066141606748 0 0 0
4806 27 1 2.697376155411469 7.6983061112691695 23.435951590056852 0 0 0
8277 62 1 2.2699920264787337 25.818928674581517 6.964281687707892 0 0 0
5101 33 1 1.4322134025178905 12.007093961593325 19.70643387186135 0 0 0
5102 33 1 1.457642592726641 11.966196054045104 21.24217200447218 0 0 0
5103 33 1 2.792739809591791 12.089161326729764 21.968239022739883 0 0 0
5104 33 1 2.709743448198946 12.132714968962977 23.46581197085418 0 0 0
8285 62 1 7.832714375987606 25.98744177627577 15.529725506646628 0 0 0
5438 60 1 1.5262960633942826 16.52620228822945 19.287094555667295 0 0 0
5439 60 1 1.57033239504418 16.133078490226293 20.746147885482138 0 0 0
5440 60 1 2.8081896195198706 16.619300123614757 21.52225771996453 0 0 0
5441 60 1 2.7697389000065495 16.31806763359438 22.98319303973255 0 0 0
8281 62 1 5.061178295684347 25.959059070495517 11.2422690329969 0 0 0
5739 45 1 1.8308988496873062 20.885531267320392 20.367796618792816 0 0 0
5740 45 1 1.8386944835389079 20.832160021479645 21.914108464918584 0 0 0
5741 45 1 3.206605278663905 21.15751924248705 22.585456121035058 0 0 0
8290 62 1 10.615138208612901 25.601461438125426 21.357356002181046 0 0 0
8276 62 1 1.192523905965717 25.03248092137118 6.293454638576279 0 0 0
6187 49 1 1.2446393755652339 25.619967325209622 19.768222783726564 0 0 0
6188 49 1 1.3512499723493323 25.165660042297603 21.237583275694643 0 0 0
6189 49 1 2.516412791909616 25.74052694177641 22.032041675204706 0 0 0
6190 49 1 2.7887447569440496 25.06083179218831 23.414173052001136 0 0 0
8292 62 1 11.900415031093214 25.73616202567147 23.575860731358468 0 0 0
8284 62 1 6.508027677176281 25.700243275306942 14.87980874347796 0 0 0
6406 62 1 0.5503379771434107 1.171762665546775 13.1078038479881 0 0 0
6407 62 1 1.8723820097164425 0.8852905546688165 13.849443850317714 0 0 0
6408 62 1 1.974340028439164 1.401996145538768 15.26487862341967 0 0 0
6409 62 1 3.21620127834574 0.801687991133077 15.9342515867672 0 0 0
6410 62 1 3.397999326960477 1.4352699959775248 17.284885423649214 0 0 0
6411 62 1 4.623777245265214 1.042346888731626 18.144547041094363 0 0 0
6412 62 1 4.695728820106594 1.6737105093799574 19.54252943938924 0 0 0
6413 62 1 5.870802662816767 1.1317251730959736 20.336836366492584 0 0 0
6414 62 1 6.161445303760814 1.6635979811137056 21.75274174571657 0 0 0
6415 62 1 7.333293400405267 1.120426679230006 22.49973868850885 0 0 0
1706 64 1 16.48737576585995 23.932234555350714 22.880877019429608 0 0 0
921 9 1 18.331030560182754 12.382148330854946 18.89355790891184 0 0 0
6625 51 1 0.8053296192154105 3.743352886734619 5.051328112620683 0 0 0
6626 51 1 1.1889930620902809 3.1862117834112995 6.43345106264003 0 0 0
6627 51 1 2.4513760832334257 3.799628695185073 7.126232143286344 0 0 0
6628 51 1 2.6361317618869693 3.1609503724719454 8.531173901459589 0 0 0
6629 51 1 3.881097476211317 3.6979191337710624 9.264100570606685 0 0 0
6630 51 1 3.935642111292503 3.250085621496504 10.735421702953559 0 0 0
6631 51 1 5.153394400369314 3.7569863060243907 11.457773332701745 0 0 0
6632 51 1 5.2536584642227755 3.3268044674653834 12.917412774287394 0 0 0
6633 51 1 6.45043030398974 3.8710588451292534 13.740579184686997 0 0 0
6634 51 1 6.604077685658952 3.275175990073515 15.133168975178455 0 0 0
6635 51 1 7.685265869680432 3.9067791864114616 15.900622590261346 0 0 0
6636 51 1 8.022150081467165 3.2377729926814722 17.211903424280475 0 0 0
6637 51 1 9.151279885906218 3.814005178363799 17.984439475886347 0 0 0
6638 51 1 9.367474352467127 3.2293911349319537 19.3724845312169 0 0 0
6639 51 1 10.524058543304081 3.754813379127493 20.208469014750342 0 0 0
6640 51 1 10.641699705589897 3.185111761854621 21.628842026471762 0 0 0
6641 51 1 11.85847087958259 3.7845192585196794 22.400355961878468 0 0 0
5737 45 1 0.6410066032689943 20.81797816355329 18.120562827003948 1 0 0
8065 45 1 7.207629625295353 22.764279734428502 22.047036820787607 0 0 0
8286 62 1 7.847111371595156 25.61270411090061 17.032848992508278 0 0 0
3382 28 1 12.223674372483496 14.179058938646165 0.32008114855057096 0 0 0
6850 51 1 1.6682912535143808 5.1754731998537835 13.717697424519569 0 0 0
6851 51 1 1.6550188220204758 5.4932500833127635 15.202495673221131 0 0 0
6852 51 1 3.0935365086047892 5.615048079195924 15.772810457476142 0 0 0
6853 51 1 3.1521431252795247 5.880320078254192 17.27766769398917 0 0 0
6854 51 1 4.562612550453363 5.740846897710282 17.85298729485311 0 0 0
6855 51 1 4.577001752838647 5.7931842496321035 19.370631372871134 0 0 0
6856 51 1 5.989412030528192 5.637982148165862 19.95135681063137 0 0 0
6857 51 1 6.045961458115921 5.799987381939666 21.439797671293555 0 0 0
6858 51 1 7.3942192000484654 5.630511003977415 22.169932812615045 0 0 0
6859 51 1 7.484417170848712 6.075507018385653 23.651593987493133 0 0 0
8056 45 1 0.41301748385745696 23.179623015696937 12.899620780446497 0 0 0
6954 41 1 1.0116567774776013 7.973760660287642 4.875338500960404 0 0 0
6955 41 1 1.0657534931770423 7.5577359954536885 6.381565040622336 0 0 0
6956 41 1 2.371565687663303 8.064458536204198 7.094232974853739 0 0 0
6957 41 1 2.4686074490439163 7.528260631864443 8.544103911550812 0 0 0
6958 41 1 3.635780621018896 8.157613412164244 9.319585657491281 0 0 0
6959 41 1 3.8904772178186104 7.6444999994303915 10.758401297710568 0 0 0
6960 41 1 5.177972339819441 8.06982468315729 11.488124490813146 0 0 0
6961 41 1 5.271831442555275 7.514663695595165 12.90476724917289 0 0 0
6962 41 1 6.515041800840626 8.009312047664837 13.637186460270229 0 0 0
6963 41 1 6.7179501754253215 7.523724352050876 15.086337694045854 0 0 0