LAMMPS data file via write_data, version 23 Jun 2022, timestep = 11111117

9706 atoms
2 atom types
9690 bonds
3 bond types
9674 angles
3 angle types
9658 dihedrals
3 dihedral types

0 36.89775039 xlo xhi
0 26.67072 ylo yhi
36.74009351527472 200.0115108847263 zlo zhi
0 5.136874295993812 0 xy xz yz

Masses

1 14
2 15

Pair Coeffs # lj/cut/omp

1 0.0914 3.95
2 0.1947 3.75

Bond Coeffs # harmonic/omp

1 449.5 1.53
2 449.5 1.53
3 449.5 1.53

Angle Coeffs # harmonic/omp

1 62.0967 114
2 62.0967 114
3 62.0967 114

Dihedral Coeffs # opls/omp

1 1.411 -0.271 3.145 0
2 1.411 -0.271 3.145 0
3 1.411 -0.271 3.145 0

Atoms # molecular

1 6 1 7.895952273356393 26.0798700444759 41.83690534870446 0 -1 0
2 6 1 8.442994586589668 26.131610187737145 43.18659886824924 0 -1 0
3 6 1 9.307221242206158 24.888930203714356 43.57848403432945 0 -1 0
4 6 1 10.071030731717975 25.01131496597094 44.88987226818427 0 -1 0
5 6 1 10.636826124104925 23.753974487968122 45.55306910519435 0 -1 0
6 6 1 11.192295807281228 23.987620513043915 46.92934312611322 0 -1 0
7 6 1 11.440774548303123 25.455271892383426 47.249718463342404 0 -1 0
8 6 1 11.944120941395495 25.392292351321714 48.60780938053501 0 -1 0
9 6 1 12.979789288292944 24.359170568776758 48.78679785984322 0 -1 0
4695 29 1 13.146451668056507 21.424264111480934 37.97334933905683 0 0 1
3481 27 1 13.36540351719797 8.02783584684676 39.66845670196372 0 0 0
8737 59 1 5.877605251627615 14.906471169620964 45.06705582792894 0 0 0
2820 21 1 17.560390977725643 2.199054031967762 44.82939865690154 0 0 0
9338 63 1 5.335520945613833 21.64039734252778 49.48699367289536 0 0 0
8283 55 1 5.062709262512629 11.692610420618745 44.79572167534878 0 0 0
2813 21 1 12.935741288556054 3.419223903974799 38.140731401305764 0 0 0
1757 58 1 8.087597332335099 17.121988665847777 43.471540085101964 0 0 1
8510 56 1 3.4119053834835036 13.9205226835101 47.79885880299985 0 0 0
220 6 1 3.7353062541068374 2.810481164807974 38.680813526180344 0 0 0
221 6 1 4.90140240204124 1.7544563240722282 38.73201116183368 0 0 0
222 6 1 5.722316994312052 1.8428136297539306 39.941467037435416 0 0 0
223 6 1 6.341548023270647 0.5034187988137194 40.34514810538481 0 0 0
224 6 1 7.1745706856196545 0.6910817455258197 41.64336814764842 0 0 0
304 5 1 11.244040163583865 1.323572233983022 40.670774206844015 0 0 0
305 5 1 11.598090277708373 1.205625728288233 42.10447752502704 0 0 0
306 5 1 12.548946609080382 0.0757111140995892 42.4341914234788 0 0 0
307 5 1 12.856955199929336 26.588822716184676 43.85676724841477 0 -1 0
308 5 1 13.776797911402875 25.583528408869604 44.375932783422556 0 -1 0
309 5 1 14.417410903335979 25.8046200894913 45.654284466072426 0 -1 0
310 5 1 14.292499184949166 0.5914481441167101 45.73781993168497 0 0 0
311 5 1 14.788875574420103 0.9008685963746973 47.19319422810526 0 0 0
312 5 1 15.987453120689384 0.05476459623675082 47.408711493413676 0 0 0
3037 20 1 18.322384495596527 2.9755634531498574 40.13861280299892 0 0 0
1978 13 1 7.280343999155902 22.104977871064964 37.24892828079301 0 0 0
1215 59 1 7.465158512907838 13.259983504318726 36.81568449492561 0 0 0
1290 7 1 3.067996799100148 16.19352116988344 37.1030860354046 0 0 0
7655 51 1 1.5644721990706565 4.88774908343878 40.868665119740925 0 0 0
3930 27 1 12.228394280563043 13.579558762597278 38.009935042612 0 0 0
2056 14 1 5.3155982898442256 24.022816645277402 39.94554212490724 0 0 0
5927 35 1 1.4836532536646945 11.35061319845199 50.91818101365598 1 0 0
385 5 1 9.965523707243245 2.0317371956323513 40.40732376615782 0 0 0
386 4 1 8.416807312856767 4.10227671094035 43.45494653994822 0 0 0
387 4 1 9.54609191464164 3.1009637745723 43.65588306312484 0 0 0
388 4 1 9.724059935715314 2.9907573008416777 45.10525352602212 0 0 0
389 4 1 10.767389373261308 1.9371405733107223 45.2888110224511 0 0 0
390 4 1 11.497672553050252 2.074939143688576 46.57452279085558 0 0 0
391 4 1 11.409936288171934 3.4527765681017537 47.147397195865985 0 0 0
392 4 1 12.104953445562035 3.505169989170005 48.49929683859504 0 0 0
393 4 1 12.6440775663546 2.184155209161601 49.23973183380998 0 0 0
394 4 1 13.425098952066188 2.250358860624313 50.44219491370497 0 0 0
395 4 1 14.565150983470202 3.2211978786491677 50.48353922794121 0 0 0
396 4 1 15.15653660583808 3.3167922699214887 51.91275179337425 0 0 0
1770 13 1 18.046185113879456 20.379220652234242 50.40141935022812 0 0 0
9336 63 1 3.4613011696837974 22.749996735407947 48.318362741382536 0 0 0
701 5 1 16.75954219878743 5.8292711272811255 47.2569060031473 0 0 0
2586 17 1 14.55241986521129 24.163257832904485 40.034252891049846 0 -1 0
2366 17 1 17.5057349029767 24.68419683175043 43.12053835142759 0 -1 0
8036 53 1 5.1815649129611785 7.0271730693404635 44.68172284653921 0 0 0
2146 48 1 17.09668848324795 23.885915437545826 49.419566098794526 0 0 0
5165 60 1 2.1465236042454565 2.108245000077931 51.50394549753227 0 0 0
5613 38 1 2.128380038014432 7.170172077669557 51.23452020140069 0 0 0
980 43 1 2.82369332489893 11.893332309106814 37.08165661263977 1 0 1
608 4 1 6.6858696651137 5.007999303821366 41.85080706721139 0 0 0
609 4 1 7.862556167242518 4.044168700470224 42.03679468121373 0 0 0
8958 56 1 4.131602332288115 17.550222187334942 47.94950278060126 0 0 0
6758 45 1 1.2624837618622262 20.253748353390087 50.71930810322607 1 0 0
691 5 1 9.912122759167401 6.835103601638605 39.40529272670358 0 0 0
692 5 1 10.162936768869743 6.604016910233107 40.91665689965218 0 0 0
693 5 1 11.338171002403504 5.703398651301551 41.135649453694434 0 0 0
694 5 1 11.456735829198882 5.337656755797873 42.54332190782212 0 0 0
695 5 1 12.769074353633448 4.505512643631944 42.66658270154588 0 0 0
696 5 1 13.040194293257585 4.377927099797247 44.13449216398349 0 0 0
697 5 1 14.404196075350217 3.940181968936739 44.6822866758489 0 0 0
698 5 1 14.822346708104355 4.756423113369236 45.89155821901399 0 0 0
699 5 1 15.157297495355795 3.9641038515523537 47.1831450633711 0 0 0
2147 48 1 18.313439489670298 24.35808661071378 50.22465742191536 0 0 0
1992 14 1 15.838245577699022 22.032517566255994 51.996010845445724 0 0 0
1754 58 1 6.333025558868796 18.3653971487569 40.24342670097782 0 0 1
383 5 1 9.048723514770424 3.3452415549723775 38.6975807370202 0 0 0
6373 12 1 1.8417976809628755 17.132914913308348 52.05629414049073 1 0 0
2138 15 1 2.3121654478100844 26.395455557085043 36.919280923828204 0 0 1
3931 27 1 13.589651584714124 12.875669190485057 38.20833429307985 0 0 0
768 6 1 10.96183302671821 7.7458628925061115 47.12609546318676 0 0 0
769 6 1 12.048399128263869 8.08597235838011 48.15014402010406 0 0 0
770 6 1 13.07384079986702 6.950249096193557 48.142989011875116 0 0 0
771 6 1 13.676750380611345 6.752068957285207 49.550919702953216 0 0 0
772 6 1 14.444839562504548 7.902566244362958 50.03430460343549 0 0 0
3484 49 1 16.53342706174153 9.222930195616179 38.39045539696359 0 0 0
9252 45 1 0.7903478158380426 23.987644539348516 39.59952798529463 0 0 0
1979 13 1 7.895358796919823 20.7925788272451 37.75843708386448 0 0 0
3713 27 1 17.836455071205428 11.553226939857781 42.94516420195628 0 0 0
8508 56 1 1.539368154222462 14.79899788157085 46.39200760921647 1 0 0
607 4 1 6.344050360367868 5.32043764331563 40.412000252808824 0 0 0
9341 63 1 6.773532643039473 21.864546080808314 52.3026880454704 0 0 0
6760 45 1 1.9012620388891963 21.290492704884706 52.9263085636704 0 0 0
3480 23 1 12.873708729468657 8.103849592213432 38.22137635768791 0 0 1
8032 53 1 2.45774120212621 9.548924423947225 41.59626762960502 1 0 0
1596 10 1 7.687591476085187 16.510142540444967 37.30686523303001 0 0 0
2819 21 1 17.23795640722368 2.093573769764489 43.39925569951862 0 0 0
986 6 1 6.867272133627887 8.619854101154473 41.968962405893734 0 0 0
987 6 1 8.086244862859136 8.620132170176282 42.86185027555834 0 0 0
988 6 1 8.43674549741865 7.450591183759958 43.8076810027799 0 0 0
989 6 1 9.723104899674981 7.566177314632454 44.680187125051795 0 0 0
990 6 1 10.389067955049784 6.3814976457549895 45.23646449892546 0 0 0
991 6 1 11.509931947357972 6.897663965569265 46.039202378066776 0 0 0
1385 10 1 17.75940104769384 14.863748559293231 47.8512539197705 0 0 0
993 59 1 8.673326408974681 12.074792025422889 38.85167748169582 0 0 0
994 59 1 9.148423915682084 10.853669939325439 39.66053560093047 0 0 0
995 59 1 10.292507422178996 11.234339763674866 40.63591974958499 0 0 0
996 59 1 10.592369642328162 9.824766665180867 41.1541748908247 0 0 0
997 59 1 11.886178508747136 10.016812712816922 41.992136078373306 0 0 0
998 59 1 12.18342284372726 8.7494832930884 42.658664789256974 0 0 0
999 59 1 13.456068908364422 9.068610642886933 43.48159467836974 0 0 0
1000 59 1 14.236574920882019 7.872542359836175 44.12237923048944 0 0 0
1001 59 1 15.10489872113053 8.278653328046776 45.3436782518381 0 0 0
1002 59 1 14.4885250210411 9.252030934035085 46.27942733343735 0 0 0
4091 30 1 12.802789490300126 16.708778521330146 37.78773555525582 0 0 0
1768 13 1 17.314802569661673 19.7119066444893 48.07409688536184 0 0 0
2812 21 1 12.025198213790205 4.4937348219735584 37.80002108011026 0 0 0
5612 38 1 1.2113756272085932 6.807859400665608 50.141819564583685 0 0 0
1755 58 1 6.610190963170718 17.92586515702366 41.65487029119262 0 0 1
7432 49 1 4.5975730105222965 0.5276276597317217 49.59528964588525 0 0 0
8118 54 1 1.9900348246639554 10.311820516875665 46.4807691063468 1 0 0
1216 7 1 6.871830264709013 14.373942223814923 41.586269758944724 0 0 0
1217 7 1 7.403650246821467 13.105397303842773 42.192273668624765 0 0 0
1218 7 1 8.47967496681633 13.35059128659536 43.22326664071403 0 0 0
1219 7 1 9.019437275677566 12.022496296601323 43.67026071076933 0 0 0
1220 7 1 10.190623594656573 12.237192670364605 44.65146030433013 0 0 0
1221 7 1 10.793291848020676 10.910844470433902 45.164614800648266 0 0 0
1222 7 1 11.590445876577045 11.00289809162891 46.40474934300377 0 0 0
1223 7 1 11.192415805214667 12.409578898030757 46.91242630692855 0 0 0
1224 7 1 11.80045505881985 12.261461766007335 48.27024128391484 0 0 0
1225 7 1 12.82291863113719 11.193846044306998 48.561858086977736 0 0 0
1226 7 1 13.502326254800995 11.188322215826473 49.93667870611581 0 0 0
1227 7 1 14.39708794025149 12.410970402093588 50.05710603469404 0 0 0
6757 45 1 0.44394137105837916 21.308836363985975 50.10097541675845 1 0 0
2584 16 1 12.948056123129026 25.127975035384257 38.41197691596126 0 -1 1
985 6 1 6.620741433848989 9.925782155111518 41.341558271049564 0 0 0
9505 4 1 8.301331395296693 24.135006414810153 49.90177340048152 0 0 0
397 4 1 16.29244636494227 4.329468553839512 51.916397671719004 0 0 0
8955 56 1 1.625588488603945 19.639159613609834 46.29184499408322 1 0 0
219 6 1 3.0469812621262635 2.8652423107610785 37.29947438783502 0 0 0
9498 4 1 4.379903751227554 25.124160935854484 43.04370806722665 0 0 0
9495 4 1 1.7415254494153247 0.600785128579193 41.381277832503436 0 1 0
9494 4 1 1.2964200705032194 0.5844435148177515 39.932507064839086 0 1 0
5926 35 1 1.471248547331002 11.791021662132659 49.45844268141903 1 0 0
1376 10 1 10.73336513610986 14.617501388540154 40.944372191951174 0 0 0
1377 10 1 11.794429843162456 14.830680782556785 41.95853605048954 0 0 0
1378 10 1 12.225453245692977 13.501991581461773 42.64666818673238 0 0 0
1379 10 1 13.30855004353085 13.964085598279722 43.498634277363315 0 0 0
1380 10 1 13.721889375805349 12.592148006932552 44.12850557589139 0 0 0
1381 10 1 14.86318343315032 12.871638750145795 45.04524834504365 0 0 0
1382 10 1 14.476706298009791 13.951646915470906 46.06911777265053 0 0 0
1383 10 1 15.42057803605467 13.931951360229073 47.3687495753791 0 0 0
1384 10 1 16.710743754521225 14.42138861479643 46.90561745164882 0 0 0
4096 30 1 16.491108528074697 14.867744859595811 42.62104519380916 0 0 0
13 6 1 15.90192722139775 0.09917715807634112 52.02580265942164 0 0 0
3259 20 1 17.24603442697447 4.426063429482064 38.38649736717201 0 0 0
2811 20 1 16.753472568260744 0.31428390212011037 38.404710930431094 0 0 0
2810 19 1 15.846456733758863 0.22458123670897917 37.200759855028686 0 0 1
1603 25 1 15.929729991764003 17.872322753557366 52.400121550781364 0 0 0
1597 10 1 8.682750998695445 16.844327424540186 38.405743711472034 0 0 0
1598 10 1 9.307964361664357 15.61857665096905 39.143110654247764 0 0 0
1599 10 1 10.424659079833472 15.916301347289782 40.11623127254604 0 0 0
5163 60 1 0.9675747395354295 3.172245766837098 49.493261919472694 1 0 0
8281 55 1 3.6931395357467114 13.020342870896572 43.354456704828316 1 0 0
7427 49 1 1.390955531712221 1.4005387389226323 46.10067366857732 0 0 0
982 43 1 4.4881768162280595 10.868428088544333 38.61844066262576 0 0 1
767 5 1 6.980253541812237 8.721118997034926 37.535351595654674 0 0 0
8290 55 1 9.749797596528778 10.031896037556777 50.2633989801361 0 0 0
8743 59 1 9.486441173271857 14.03888337883628 50.11157542256217 0 0 0
979 43 1 2.0628478800454295 13.199310457174276 36.848583391990836 1 0 1
2367 17 1 18.229373609994116 24.59889731132133 44.434094184000706 0 -1 0
8033 53 1 2.9797946519100713 8.158293884335533 42.058396794405006 1 0 0
2358 57 1 9.26056681110598 24.36078054024033 39.49641334777525 0 0 1
1292 7 1 4.62614889971722 15.290744298900941 38.7226132145857 0 0 0
2360 48 1 10.490946234385337 23.42026322263314 41.27358770586974 0 0 0
602 3 1 2.210396807559803 8.686646818967821 37.10833250140968 0 0 1
1007 59 1 17.870926155750976 10.930048052390852 49.97117868812015 0 0 0
1289 7 1 2.4137736595158246 17.530948938028384 36.93114136436548 0 0 0
1672 25 1 9.459700819271793 16.637253941065147 43.7414554099444 0 0 0
1673 25 1 9.696445990365017 16.40477751712075 45.23528750435291 0 0 0
1674 25 1 10.900675842622942 15.395397006485464 45.31209107626317 0 0 0
1675 25 1 11.55497451303174 15.915700368740385 46.516274133765286 0 0 0
1676 25 1 10.828180571994363 16.457183521377036 47.73794165523288 0 0 0
1677 25 1 11.718792123778762 16.72120351449609 48.882239310827345 0 0 0
1678 25 1 12.749938930838209 15.677907598019669 49.10746739356131 0 0 0
1758 13 1 10.078896913675214 20.223238704873108 40.684598218764116 0 0 0
1759 13 1 10.782198338977322 19.066007190454442 41.14239654280377 0 0 0
1760 13 1 11.66771991532639 19.16478914458066 42.43029973221948 0 0 0
1761 13 1 12.57213178224863 17.93840370204414 42.65880312717064 0 0 0
1762 13 1 13.156080158546457 17.869723082603965 44.04770925028957 0 0 0
1763 13 1 14.398039229659048 17.07271928226711 44.110990516093054 0 0 0
1764 13 1 15.18899058587514 17.524630040927843 45.3514746491986 0 0 0
1765 13 1 14.38461763122833 17.702641141643287 46.58980356741572 0 0 0
1766 13 1 14.947756456939917 18.811861406099403 47.53633550018675 0 0 0
1767 13 1 16.468321770240788 18.616643298690956 47.43106728512148 0 0 0
3258 22 1 16.57037339235854 4.472252211155847 37.04451235106194 0 0 1
8957 56 1 3.5142381306721773 18.85925635925677 47.50449765282478 1 0 0
4540 32 1 17.254000584027693 19.997010530838953 42.98180113313436 0 0 0
313 5 1 16.517268252522236 0.35918097593016574 48.726796859103274 0 0 0
6371 12 1 1.3267106648353395 16.25235160355018 49.65741627702729 1 0 0
315 5 1 18.443238269443672 1.5509708575121612 49.455521251014495 0 0 0
5164 60 1 1.2819309425634002 1.9069429179616548 50.38031991168473 1 0 0
1981 13 1 9.62333285741742 19.963094100881936 39.26718278522896 0 0 0
1982 14 1 8.62277914990723 20.323924819805043 43.7681909945934 0 0 0
1983 14 1 9.616901851492164 20.589245942750168 44.92957967450222 0 0 0
1984 14 1 10.471097619464462 19.421268712026034 45.338187045442304 0 0 0
1985 14 1 11.491246366390088 19.73151185761127 46.43148263313823 0 0 0
1986 14 1 10.872673833508083 20.849674224660536 47.27738544752078 0 0 0
1987 14 1 11.650289286608581 21.244484936419866 48.463878882864904 0 0 0
1988 14 1 12.293611081873587 20.00310670028785 49.013014818658654 0 0 0
1989 14 1 13.064028146776378 20.164607911882122 50.3583339685006 0 0 0
1990 14 1 14.352280730691454 21.084841867303044 50.2981641638722 0 0 0
7206 36 1 0.50481088019728 24.99468902888905 50.19511462614079 1 0 0
9500 4 1 6.147712684386226 24.170853027937238 44.46140730291013 0 0 0
2055 14 1 4.752545767219129 23.966478808089445 38.53637421008214 0 0 0
8120 54 1 3.8777827626625756 9.382627690417884 47.73046963507532 0 0 0
3036 20 1 18.09850345143919 3.2035902541566514 38.68382917129405 0 0 0
3257 22 1 15.847790642802837 5.785249026135247 36.8150953965526 0 0 1
8959 56 1 5.151893713510282 17.58777578741218 49.06886728685011 0 0 0
8035 53 1 4.326756285981915 6.785691943761717 43.54241951121229 0 0 0
1006 59 1 17.335878314556002 10.105925387350183 48.81970759644329 0 0 0
9267 45 1 11.027058711224269 17.87557508058094 52.039690658118516 0 0 0
2057 14 1 5.866837532196071 22.659113551858944 40.37729953951317 0 0 0
2058 14 1 6.77932965592153 22.971084403867092 41.48138615482075 0 0 0
2059 14 1 7.243167824525421 21.56307040726714 42.07058632009627 0 0 0
2060 14 1 8.089741804057455 21.71183832447883 43.32399513450739 0 0 0
2140 48 1 13.8018951221796 21.175228807437925 44.20548761310355 0 0 0
2141 48 1 14.744327245504147 21.30771396956535 45.347958637518936 0 0 0
2142 48 1 14.244870625390549 22.021344987156468 46.537995219469664 0 0 0
2143 48 1 15.18308591105508 22.665796695094404 47.575439124468325 0 0 0
2144 48 1 16.521366309862458 22.825112489820604 47.076181646591984 0 0 0
2145 48 1 17.44824271199961 22.939014609746955 48.28721746811451 0 0 0
4314 31 1 17.995625842726852 17.01127200874722 38.39700019932794 0 0 0
5611 38 1 0.6792237845496483 8.109229514244157 49.581736742383235 0 0 0
992 59 1 7.635622915842273 11.989330685749056 37.755009653944605 0 0 0
2355 57 1 7.449800924252305 0.09537404909905661 37.14461349387327 0 1 1
1752 58 1 5.012310248200087 19.548709906962184 38.638752545387355 1 0 1
9501 4 1 6.384326444303087 23.968547338162843 45.98725421725264 0 0 0
9503 4 1 7.750473165826076 22.876771635276917 47.77695305470432 0 0 0
7668 51 1 10.26566437762301 0.8134528526613256 51.87858004265896 0 0 0
1004 59 1 16.681989967019064 10.179817263581997 46.458425936764456 0 0 0
218 6 1 2.23713326888155 4.171601170165196 37.170278299990194 0 0 0
2362 48 1 12.15872358798655 22.257772993819923 42.73827674671578 0 0 0
2363 48 1 13.421923135706168 22.495847956477746 43.51426466750339 0 0 0
2364 17 1 16.137846905379426 23.25548863752041 41.76197501394563 0 -1 0
9265 45 1 9.676233198317885 18.87631155826613 50.40191173111239 0 0 0
1229 7 1 15.574750526618017 13.657158830055703 51.9695944258689 0 0 0
4537 31 1 17.19918642703631 18.278536552793145 38.21149855957969 0 0 0
1991 14 1 14.774182350478185 21.027967413617297 51.73019507085524 0 0 0
9255 45 1 2.780397269821396 21.66503805916697 41.978549688460035 0 0 0
9263 45 1 7.8769777537105234 19.702101495095636 48.754670281217834 0 0 0
1386 10 1 17.015017369440724 15.287855380957842 49.144184280952175 0 0 0
4698 14 1 17.997922385484912 21.58539522222535 38.403302244072385 0 0 0
2587 17 1 15.213324899935733 24.535497314676473 41.31554730261554 0 -1 0
8731 59 1 1.2578169181689163 18.766452456270393 40.06820319015391 0 0 0
5614 38 1 1.4065939788385995 8.032502062591849 52.25383603021374 0 0 0
604 4 1 3.4446905965409664 7.100019369888226 38.50482666615857 0 0 0
1294 7 1 6.129894855022926 14.236194609600537 40.19738779287041 0 0 0
3938 46 1 17.89990297552217 12.668679697920407 38.06733705992224 0 0 0
3937 46 1 17.198486220679552 14.02830239708346 37.792200683783435 0 0 0
2814 21 1 13.622325581229243 3.5131255860479182 39.56325735418573 0 0 0
2815 21 1 14.400317791901852 2.3257630182616342 39.92041161100102 0 0 0
2816 21 1 14.923611540988809 2.42365046164275 41.36557296085384 0 0 0
8279 55 1 2.099680870693461 14.287659085973884 41.88879349437886 1 0 0
9334 63 1 1.8276108712188965 23.576545376431078 46.56795480387333 1 0 0
2817 21 1 15.705551793057964 1.1447184409344837 41.693528844733166 0 0 0
7748 52 1 5.522793085408042 5.125975796431036 51.45690477386903 0 0 0
7657 51 1 3.150485265365345 3.4510093682009026 42.11820389527563 0 0 0
2359 48 1 10.475946428436053 24.65047845246366 40.319780118463555 0 0 0
9257 45 1 4.295142008446504 20.602174272739312 43.57725111908533 0 0 0
6759 45 1 2.391063290451975 20.625097273547073 51.62703004795408 1 0 0
8740 59 1 8.455756687975512 14.306165845011401 47.78230199852424 0 0 0
3260 27 1 16.089743620297387 5.7489814298860935 41.490225118262266 0 0 0
3261 27 1 16.771300500347976 5.569511970961183 42.82534682751884 0 0 0
1769 13 1 17.33776112251877 19.41195309291809 49.54025173233012 0 0 0
2818 21 1 16.095176952222733 1.1308215157016104 43.15174505435781 0 0 0
8960 56 1 4.374153559874581 18.532579420690567 49.97520445454915 0 0 0
9333 63 1 1.5414394578219084 23.940731971043654 45.135914616623666 1 0 0
2139 15 1 3.222163091484376 25.20221360903892 37.097224810475 0 0 1
382 5 1 7.913797696283812 3.393943436635083 37.73025082814761 0 0 0
3482 27 1 14.518162624390795 6.913694955900251 39.80084536215584 0 0 0
3483 27 1 15.324350571392907 6.983298073075439 41.167720848498185 0 0 0
7428 49 1 2.7863804000437873 0.774688178648799 46.242142282217884 0 0 0
7746 52 1 5.2544550584690475 3.5154831173520975 49.64627001817484 0 0 0
2356 57 1 7.910456802225781 25.343589290477304 37.55243838940899 0 0 1
2583 16 1 12.700402224133347 26.47838476103325 37.73416723834971 0 -1 1
8034 53 1 3.8401127819354652 8.194500452722597 43.28675357653739 0 0 0
3709 27 1 14.880760874819433 11.944556149471987 40.06355664053048 0 0 0
3710 27 1 14.975771662848192 11.11310726454153 41.360141506358644 0 0 0
3711 27 1 16.332711932022455 10.391903161147688 41.545551964892184 0 0 0
3712 27 1 16.902451346122216 10.296530098177085 42.846552925692244 0 0 0
7433 49 1 5.110254514358514 0.6632963060224458 51.04622896074421 0 0 0
11 6 1 14.348665507492557 25.499092614213836 50.50767395039502 0 -1 0
5166 60 1 1.7463648117381698 3.3839783562460704 52.180539965516026 0 0 0
8954 56 1 1.1360434583396075 19.534313365744993 44.922540824742406 1 0 0
7430 49 1 4.385804321189088 26.300898899202153 47.48751281045222 0 -1 0
8117 54 1 1.727788932306721 10.566579250007452 45.05451458677142 1 0 0
8515 56 1 6.168999067149956 12.715188225066605 51.834524223859745 0 0 0
3479 23 1 12.008388983034495 9.452216918631722 38.09021057129707 0 0 1
606 4 1 5.073261779580299 6.053340007564604 40.28930975990503 0 0 0
9339 63 1 5.1801885719403415 22.787747208006678 50.47728634581617 0 0 0
8123 54 1 4.348597338715102 9.46641619573595 50.213453407711185 0 0 0
4092 30 1 13.58859407140397 16.984409727116056 39.10518490053454 0 0 0
4093 30 1 14.586340674916 15.884399682437873 39.45501956905955 0 0 0
4094 30 1 15.120568761105346 15.904033906102836 40.87143273621279 0 0 0
4095 30 1 16.120240130494057 14.813412064383868 41.101234478836716 0 0 0
8741 59 1 7.7696532184584575 15.312967271615857 48.80285810834988 0 0 0
690 5 1 8.611638784613818 7.727438602482723 39.237029514219536 0 0 0
4614 32 1 13.291993529539507 21.003665350698466 39.40452174001674 0 0 0
8732 59 1 1.7751064114990003 18.63324103155264 41.54006225828904 0 0 0
7745 52 1 4.482258682993279 3.5268443134221 48.21479932846947 0 0 0
1756 58 1 7.945352539083858 17.49048913735219 42.04854111807336 0 0 1
9262 45 1 8.13413356303626 18.498387972527468 47.88331440735618 0 0 0
1003 59 1 15.505006839331712 9.725670523959165 47.25956902984004 0 0 0
4538 32 1 15.946503377019003 18.996203267267518 41.13975993117922 0 0 0
4539 32 1 16.649396136330548 18.784820184889657 42.49827946347827 0 0 0
4098 30 1 18.085160145901785 15.760734715317595 44.291307822815085 0 0 0
10 6 1 13.682563199156808 24.30323496625262 50.181515142180245 0 -1 0
984 43 1 5.457261686801036 9.58837251702112 40.397988742783355 0 0 1
8506 56 1 0.365695142883188 16.252892852799206 44.75730286738287 1 0 0
2357 57 1 9.172723880721053 25.444484390826112 38.480985522935654 0 0 1
1980 13 1 8.771282886949423 21.18331793934358 38.9530849383449 0 0 0
1387 10 1 17.837039529494913 15.912027424451836 50.27107877796526 0 0 0
4616 32 1 14.78271336185039 20.012624439365315 40.96881591540381 0 0 0
7656 51 1 2.2087391754714236 4.527309244571164 42.23610568979626 0 0 0
3708 27 1 13.49919355469957 12.286802463929375 39.60032259417811 0 0 0
8509 56 1 2.547211833004871 13.7140653381074 46.58814467268959 1 0 0
8511 56 1 4.469739013629738 12.827320357706862 47.9778969297288 0 0 0
8045 53 1 10.980381238644783 4.281016013402331 51.703763789246146 0 0 0
8734 59 1 3.466018699833678 17.5444070130193 43.05741474394379 0 0 0
2361 48 1 11.638553052965039 23.50182686089201 42.11535924830781 0 0 0
2365 17 1 16.61692822421821 23.49383257386052 43.0807136531609 0 -1 0
4697 14 1 16.786851096151764 22.52405490492281 38.17941015392619 0 0 0
9253 45 1 1.439866613527568 22.747410745887812 40.29517368401794 0 0 0
8738 59 1 6.550884521842271 15.218829624541936 46.40723645353678 0 0 0
603 4 1 3.4181138303738163 7.807855437225106 37.22343921864644 0 0 0
3262 27 1 17.45911901360747 6.920833201860921 43.0451891548429 0 0 0
1753 58 1 5.188360065237366 19.303658132429184 40.101621315976125 1 0 1
8282 55 1 4.681261439227763 11.924871371535778 43.314502034844544 0 0 0
9499 4 1 5.078864870526561 25.24409325269771 44.35259100617557 0 0 0
704 5 1 18.374056509588776 6.963505935610533 50.558583968046136 0 0 0
774 6 1 15.6223134913453 9.093859252858135 51.943671272915026 0 0 0
1601 25 1 14.41862495941239 16.744519770501007 50.70341030459935 0 0 0
9261 45 1 7.469669064095162 18.66494188730402 46.566885164366724 0 0 0
9256 45 1 3.604711933454539 21.9651166290864 43.33853637218145 0 0 0
7743 52 1 2.9895061025063936 4.747077168142877 46.92076856961474 0 0 0
8031 53 1 1.5883646238116262 9.616535628155754 40.297360849169195 1 0 0
605 4 1 4.771344043035315 6.649562344188423 38.9215197457512 0 0 0
773 6 1 15.086002847255482 7.673178909451857 51.38284309966433 0 0 0
981 43 1 3.6684998684256054 12.081252697312443 38.33549142085214 0 0 1
8733 59 1 2.7565180744333153 17.552824607598627 41.630413334176644 0 0 0
381 5 1 7.328032252452216 4.645699339882291 37.37328784332109 0 0 0
5929 35 1 2.062449843204843 12.970462105033752 52.67713472418816 0 0 0
1293 7 1 5.2889398851451075 15.424010690122913 40.02807015973613 0 0 0
8122 54 1 5.2629142083371105 8.544910509256098 49.41762231040102 0 0 0
8284 55 1 6.187057189441921 10.809333822678463 44.89443854970385 0 0 0
8956 56 1 2.4615309695343845 18.50583945839748 46.47339206015181 1 0 0
1228 7 1 14.965194730664402 12.347744467217598 51.45004803080087 0 0 0
8121 54 1 4.57210786125935 8.103900394648807 48.108450554351876 0 0 0
9260 45 1 6.458448435235896 19.762735227548045 46.51929928576599 0 0 0
9507 4 1 9.860076122984763 22.931951287538496 51.44980425425257 0 0 0
703 5 1 17.773604698917545 6.018540882421476 49.492366744846564 0 0 0
7207 36 1 2.025278748655791 25.070040301486827 50.25847256433955 1 0 0
7749 52 1 5.8974103968330445 4.246175190117126 52.685183068108756 0 0 0
4694 29 1 11.898780799475933 22.191923958494122 37.88770690766777 0 0 1
9335 63 1 3.1379571046117585 22.889221844447093 46.858616713764064 0 0 0
7429 49 1 3.050965068721658 0.1040887302589417 47.56158129963627 0 0 0
8291 55 1 10.224352454173468 9.664056330058909 51.663561758154415 0 0 0
8030 53 1 0.554297509800871 10.766504654976128 40.247363890651215 1 0 0
314 5 1 17.005805300333606 1.684880153876465 49.0025658418437 0 0 0
1602 25 1 14.598489180783048 17.013520749188128 52.156864393590084 0 0 0
9508 4 1 10.885800041673924 21.865641574454784 51.90843030357865 0 0 0
9496 4 1 2.7398509362306926 26.16532569822636 41.545721187190466 0 0 0
8736 59 1 4.976670296449665 16.113246360016948 44.7928437916304 0 0 0
7431 49 1 5.039970933789697 25.99508998984632 48.83971585511779 0 -1 0
384 5 1 9.456943005590603 1.9870803299797717 39.01714721721248 0 0 0
9493 4 1 0.5881808448703472 1.8997795011269774 39.744244642968454 1 1 0
7658 51 1 3.8738757897283045 3.5260874032689866 43.438872002587445 0 0 0
7659 51 1 5.061550496636251 2.5365519782704107 43.48402723905405 0 0 0
7660 51 1 5.538476007892008 2.5100337869435343 45.013155777491164 0 0 0
7661 51 1 6.571781848549301 1.5269020637353452 45.27375224928053 0 0 0
7662 51 1 7.173297544605218 1.4716263320469876 46.686379720648986 0 0 0
7663 51 1 7.862853599060381 0.3234166041945409 47.03925694915684 0 0 0
7664 51 1 8.660698355277553 0.7553854124215988 48.165325883961856 0 0 0
7665 51 1 8.076148057792055 1.8255078444033437 48.99347443852543 0 0 0
7666 51 1 9.219045662870048 2.036053164156178 50.026283964477074 0 0 0
8961 56 1 5.065655677563283 18.64513600347079 51.29192905681368 0 0 0
5928 35 1 1.2266578735191542 12.781527685178565 51.4017066856236 1 0 0
983 43 1 5.081872015956489 10.999601271298348 40.09207429752858 0 0 1
9504 4 1 7.921953671466353 24.172295376041095 48.491403872256775 0 0 0
7667 51 1 9.732243292145002 0.6618566440333131 50.42231233257806 0 0 0
8513 56 1 4.439334046578637 13.687405863167655 50.2719256251025 0 0 0
7747 52 1 4.643336576864937 4.495744338570014 50.45452127289868 0 0 0
1751 58 1 3.903019074987786 20.5961420331562 38.57110674625121 1 0 1
3263 27 1 18.191093249659737 6.7581531007934865 44.38219804698084 0 0 0
8512 56 1 5.244144083222029 12.982300020496986 49.20911132866535 0 0 0
2588 20 1 17.19665308050723 25.704153917778022 38.88200737751027 0 -1 0
9497 4 1 3.4209998138974202 26.406108393655845 42.881697944971194 0 0 0
8744 59 1 9.91260802886839 13.895491994929694 51.52839291683236 0 0 0
9254 45 1 1.9315219002653206 22.862592566767773 41.74412861323179 0 0 0
7653 51 1 0.22721954408684167 6.321889381892064 39.309211680437635 0 0 0
700 5 1 16.004008405259547 4.839429719048805 48.117356425667474 0 0 0
8125 54 1 6.101882357477976 8.676128080064117 51.52734457315354 0 0 0
7434 49 1 6.1438232027731665 26.16207112276556 51.46172190843669 0 -1 0
8292 55 1 11.373498143670261 8.747397619839704 51.56807040010757 0 0 0
4090 30 1 12.136116357390435 18.02316696240576 37.56502861190511 0 0 0
8037 53 1 5.984962188486846 5.832593966470028 45.1864463020028 0 0 0
8038 53 1 6.92579419470767 6.047120299802441 46.35328975549449 0 0 0
8039 53 1 7.642381204714239 4.8712160813308545 46.95922273439909 0 0 0
8040 53 1 8.48935172536682 5.317055167996401 48.12300245814644 0 0 0
8041 53 1 7.999306436069714 6.554422832162142 48.7262161970069 0 0 0
8042 53 1 8.761192624370869 6.722021127066574 49.95269840937068 0 0 0
8043 53 1 9.452105770108165 5.468620709298219 50.22723493117938 0 0 0