LAMMPS data file via write_data, version 23 Jun 2022, timestep = 11112117

8487 atoms
2 atom types
8471 bonds
3 bond types
8455 angles
3 angle types
8439 dihedrals
3 dihedral types

0 36.89775039 xlo xhi
0 26.67072 ylo yhi
21.00172596483516 215.7498784351739 zlo zhi
0 6.127200919396745 0 xy xz yz

Masses

1 14
2 15

Pair Coeffs # lj/cut/omp

1 0.0914 3.95
2 0.1947 3.75

Bond Coeffs # harmonic/omp

1 449.5 1.53
2 449.5 1.53
3 449.5 1.53

Angle Coeffs # harmonic/omp

1 62.0967 114
2 62.0967 114
3 62.0967 114

Dihedral Coeffs # opls/omp

1 1.411 -0.271 3.145 0
2 1.411 -0.271 3.145 0
3 1.411 -0.271 3.145 0

Atoms # molecular

1800 16 1 10.449726761184081 21.53388904296648 21.89784533491153 0 0 0
1771 16 1 16.362738051411906 21.941088230775925 29.98596421066727 0 0 0
2111 34 1 13.53660832271941 1.5191656082739198 21.240015316528876 0 0 0
3216 45 1 15.301085106973268 10.033059061353748 23.59963825524294 0 0 1
215 2 1 13.284585938816246 2.160272528623656 33.48367593766348 0 0 1
732 5 1 16.94796557177245 7.572947980549447 31.97011340079448 0 0 0
7074 58 1 0.08820655173696922 12.434507334606568 21.126294001793756 0 0 0
2095 18 1 10.537345983733243 25.793056746124034 21.715378109285037 0 0 1
5366 41 1 0.7035910358209436 13.048146776380168 35.20885148248606 1 0 0
1728 14 1 18.00540089339267 20.108640892764416 39.27629918760845 0 0 0
6712 53 1 1.9979514138178402 6.001484744211404 30.741955459509246 1 0 1
4431 35 1 16.680780142184794 24.307608750398025 25.05711605843025 0 0 1
1277 14 1 9.906172705073264 15.447850458715829 28.998239261408543 0 0 0
7499 57 1 6.551182261662405 17.353829773085714 31.36443443349264 1 0 1
6748 9 1 11.0403175676608 8.702153559336955 37.73529447649861 0 0 0
7846 62 1 12.715845477020062 21.49520875154398 38.72938420003429 0 0 0
7603 21 1 5.932127685703836 19.813612192333647 36.48184092961998 1 0 0
1295 12 1 13.941758524004385 16.363710134811843 28.437410863337966 0 0 0
204 2 1 5.734120984314102 1.1193854877977587 21.975574608900388 1 0 1
8057 63 1 4.312948132445912 23.713642524638033 35.1272633542663 0 0 0
1041 8 1 17.663578465480764 13.065409982352644 33.166606757477176 1 0 1
6956 17 1 2.3472371993376595 11.220677208663016 31.608450930506443 0 0 0
1773 16 1 17.693065466289823 21.672670706630843 32.21942218688554 0 0 0
666 37 1 5.751787995852043 5.884628515099284 21.487980956430427 0 0 0
218 58 1 15.653663262460398 1.5341814156579197 36.62356341645211 0 0 0
3449 27 1 15.679219874717393 15.033411532949318 24.397572868313052 0 0 0
6747 9 1 11.071046697096216 8.654824193494079 36.249364434907 0 0 0
1030 8 1 9.885410778987533 11.800106067377033 22.092168895696467 1 0 1
211 2 1 10.248353232649205 1.9887546699751222 29.614597023425347 1 0 1
1715 13 1 7.951419824164389 19.360020120983695 26.129651132052096 1 0 1
4432 35 1 17.70039662782079 23.439374865867713 25.857919462164837 0 0 1
1716 13 1 9.158511187075682 18.790021654386873 26.835001052537343 1 0 1
7602 21 1 4.654283170287491 20.222371198415075 35.748637758097175 1 0 0
832 7 1 6.756159400399933 9.51338702200212 23.856982005395206 0 0 1
5210 60 1 3.3175526982156316 8.73264994529168 39.38591867852259 1 0 0
1043 8 1 18.83112702639316 13.186624997833407 35.38282433268241 1 0 1
4428 35 1 14.910948242473273 23.147521725690687 21.688768725119637 0 0 1
3452 27 1 18.22561728604966 14.340807981468052 27.348480515862697 0 0 0
1297 12 1 15.572420059427918 16.597067132140474 30.324333475190876 0 0 0
6497 54 1 8.400771804144664 7.271323845115347 40.11537791296105 1 0 0
1161 25 1 17.18046398372275 5.259271656136942 26.207810001403374 0 0 0
1035 8 1 13.481136339303982 12.793159536350197 27.135477347626992 1 0 1
1714 13 1 7.7863413270814394 18.965495041313165 24.646201423257878 1 0 1
451 37 1 11.336261724921913 6.119903391905026 31.36371163631344 0 0 0
8055 63 1 2.707136615646283 23.879481159200758 32.94770604450765 0 0 0
1031 8 1 10.32138962938721 12.57295910215031 23.328428765917486 1 0 1
3928 32 1 15.687903802558003 19.182701048713657 23.263353028155034 0 0 0
726 5 1 12.868672093409785 7.601873601393072 25.558627132355387 0 0 0
1806 17 1 4.589823734054447 24.242542912533068 21.129537320690343 0 0 0
6710 53 1 0.4332439324274682 5.886335416218876 28.652808468821185 1 0 1
8056 63 1 4.1460645291938585 23.660405002976585 33.57210067028514 0 0 0
8268 30 1 1.4806892220899115 26.182611160414712 22.92972196807891 1 0 1
7595 56 1 0.42755179775360147 19.204794725907444 27.996819952073025 1 0 1
351 58 1 12.384986898479559 12.715812295524339 39.01644878601432 0 0 0
7555 10 1 7.860593683569637 17.315149177302356 33.57337574756129 1 0 0
1712 13 1 6.279273837832426 18.945241269185967 22.652608215862745 1 0 1
8278 55 1 8.260658665318502 0.17395410861777164 33.7122644316934 0 1 0
8052 63 1 1.1928911313163497 23.7071679140079 29.328879379422858 1 0 0
2112 34 1 15.01219709758147 1.7140688192646463 21.627440948723656 0 0 0
6963 17 1 7.777108880200797 10.788192409769373 38.55794264566072 0 0 0
2096 18 1 10.575349817643419 26.04709238419712 23.23898923629205 0 0 1
7088 58 1 9.574127842595493 12.986213821737316 36.0774722096795 0 0 0
225 36 1 14.52829890898805 3.118529883039163 28.01883016130818 0 0 0
6953 17 1 0.8166262507738783 10.695119491384176 28.076291305072548 0 0 0
4764 41 1 1.264642834339849 4.177475256445903 34.91495609183509 1 0 0
8283 55 1 12.602801565295737 26.517339168709714 38.43584539223066 0 0 0
7832 62 1 2.186388916473509 21.05638951062147 24.591128261953372 0 0 0
231 36 1 18.35115203802338 3.140981317389132 34.535609759584545 0 0 0
1774 16 1 17.862509631741563 21.952483512497892 33.70233606636087 0 0 0
1804 16 1 13.281968292367575 21.732990109508755 25.958130058190505 0 0 0
1803 16 1 11.905718488183831 21.93855242476457 25.40244006780909 0 0 0
729 5 1 14.55368731839046 8.10559454302361 29.012136932264905 0 0 0
446 36 1 12.257015759311125 4.086080686260987 25.053763688610722 0 0 0
2584 25 1 15.68410596673966 5.354895109345958 24.215249442805227 0 0 0
1278 14 1 10.768963886793253 14.777214550821734 30.01032256985264 0 0 0
667 37 1 5.767499840508077 5.697502248906706 23.008597262507536 0 0 0
7278 16 1 2.117208587720648 15.593503119375452 31.661863002638704 1 0 0
6490 53 1 3.7907840745634935 6.1659895576073644 32.46761699667092 1 0 1
7075 58 1 1.1431440191356486 11.772134538234898 21.966665634274893 0 0 0
3447 27 1 14.404574489144233 15.046404277755558 22.16111347766063 0 0 0
5207 60 1 1.4191525607091289 9.645790044822295 36.17595850692587 1 0 0
5994 48 1 2.4037576465111963 21.6698538649743 38.622423590010534 0 0 0
761 6 1 14.233612922536262 10.464870230280864 34.41642019560517 0 0 0
762 6 1 14.393022282083306 11.112480017902202 35.777947534830616 0 0 0
763 6 1 15.796121542646437 11.031433821688811 36.3450058357456 0 0 0
764 6 1 15.812360887047845 11.194797451910103 37.86685205840283 0 0 0
1727 14 1 16.694012511745072 19.73854974294842 38.625444883311005 0 0 0
833 7 1 7.24714403033093 10.342247450132005 25.010797906365035 0 0 1
4044 25 1 16.635121857309894 6.178628163990268 25.062628355860987 0 0 0
7082 58 1 5.526265917037794 13.162227369282308 29.600529247373707 0 0 0
1034 8 1 12.67007531847346 11.878453091387861 26.246599635983614 1 0 1
6740 9 1 5.598207594016073 8.249697918317901 29.38042774970885 0 0 0
4433 28 1 18.022080419169743 24.153969565068813 27.199414062062715 0 0 0
6749 9 1 12.420014259277867 8.910811534265642 38.51666281747112 0 0 0
1033 8 1 11.88449939933817 12.642330477549677 25.199046039697787 1 0 1
1720 13 1 12.08887847316689 19.127573421523973 31.034627526289945 0 0 1
1726 14 1 16.536656440024487 19.852425136155546 37.11774642005038 0 0 0
1767 15 1 9.128300361318907 21.61282218137317 21.135270538436963 0 0 1
728 5 1 14.382431434976244 7.509959625008073 27.627214523970196 0 0 0
792 6 1 9.750471200878897 9.670159414155712 28.025380925311666 0 0 0
793 6 1 10.426935312335834 10.587389594953386 29.11926776062154 0 0 0
794 6 1 11.43366426961507 9.904338064363241 30.091162485926983 0 0 0
795 6 1 11.799944934362005 10.738316408171379 31.321304782734174 0 0 0
796 6 1 12.821373929201588 10.091162452380708 32.251565246114346 0 0 0
797 6 1 12.83376650839286 10.50343217892634 33.73432395383655 0 0 0
217 2 1 14.788070282004368 2.2854776634117586 35.59130663215241 0 0 1
1032 8 1 11.198829729304627 11.728734749022335 24.211622798694513 1 0 1
735 5 1 18.605908780034337 8.583842563184898 35.28913594708115 0 0 0
6353 54 1 5.18162218244378 1.5732647842428051 35.35218409963139 0 0 0
4765 41 1 1.5378861075342527 4.823731220797262 36.238049744718076 1 0 0
7277 16 1 1.9526315297307844 14.910624387578052 30.317744021200056 1 0 0
1038 8 1 15.440470330711861 12.134139358355739 30.34351919060864 1 0 1
730 5 1 15.675200061468448 7.525223454322262 29.828807849021256 0 0 0
1274 52 1 7.8996113384318045 14.295924866335103 25.740959530705407 0 0 1
1293 12 1 12.5022676970425 16.218896009121583 26.200281749280727 0 0 0
834 7 1 8.18944103258008 9.624795673770087 25.957773080690462 0 0 1
6492 53 1 5.145840429182872 6.3649225055980745 34.56407728892913 1 0 1
443 4 1 10.391747279164031 3.185150894082568 21.74133292089726 0 0 1
5690 46 1 1.328472520454401 17.635474088875615 38.03714847387008 1 0 0
5370 41 1 3.6346637926413927 13.222840091549793 39.481933836663096 1 0 0
7843 62 1 10.21695587731659 22.011339516462634 35.786130738493256 0 0 0
6954 17 1 0.8790013060902729 11.094792035645932 29.523390388126707 0 0 0
669 37 1 7.150557405922154 5.740182446481664 25.067814985169278 0 0 0
672 37 1 9.995435522450302 5.565822627264654 27.7817179003124 0 0 0
210 2 1 9.968680724871675 1.09068490546385 28.40009119555758 1 0 1
205 2 1 6.191756576490826 1.849956261607275 23.27078102469967 1 0 1
3927 32 1 14.352558066597842 18.714345994884276 22.760446800451373 0 0 0
7604 21 1 6.174299933544959 20.208644377369808 37.93266390485542 1 0 0
3218 45 1 16.468074458389307 9.83721273097262 25.712105419239776 0 0 1
7841 62 1 8.576758356983648 21.680646156740547 33.807068174671336 0 0 0
8273 55 1 4.606776392747246 25.82692753111765 28.448478775783556 1 0 0
6349 54 1 2.753777207909061 1.904339742736475 31.00928121339249 1 0 0
1820 17 1 14.359836040539392 24.348487884126612 36.03340993506383 0 0 0
230 36 1 17.41443356829706 3.72480270686997 33.47755648153947 0 0 0
2583 25 1 15.411565741956187 6.062972214452977 22.84451043616329 0 0 0
6472 1 1 10.065540990363912 4.415323601305228 35.850125777492494 0 0 0
6961 17 1 6.443683755385277 10.76669003332187 36.458251439626565 0 0 0
6355 54 1 6.561929790836437 1.8585337924095477 37.6342766536585 0 0 0
8277 55 1 7.812635465052801 26.019025038206852 32.50979200443285 0 0 0
4767 41 1 2.516419337413174 4.529735302636728 38.5286962477128 0 0 0
1822 17 1 15.801878802170704 24.251110162421927 37.986063172442954 0 0 0
2097 18 1 11.954760934017427 25.798879748483678 23.87476678604402 0 0 1
1279 14 1 11.359303509492026 15.607162490566626 31.170064427496584 0 0 0
1280 14 1 12.35726506134893 14.821749446197336 32.03923760687323 0 0 0
1281 14 1 12.85725601024846 15.594477722940915 33.27865205098914 0 0 0
1282 14 1 13.743721118684897 14.904086487811533 34.2767670750544 0 0 0
227 36 1 15.652194144260053 2.89109924034816 30.182928423902585 0 0 0
671 37 1 8.601818007887767 5.813857137823009 27.131186264672 0 0 0
1270 52 1 5.113067515367115 13.587850569204134 21.601180669658223 1 0 1
226 36 1 14.80317922078712 3.8337979574818393 29.362866022746427 0 0 0
3448 27 1 15.369917269985487 14.317131166774473 23.102059118620645 0 0 0
6128 39 1 1.3872074386703204 26.404511031345933 35.824165293999854 1 0 0
1002 25 1 18.152285218120934 5.923580095810989 27.262347362018843 0 0 0
458 37 1 17.029091490437068 6.511554171019732 38.26545293635392 0 0 0
1291 12 1 11.224162467867817 16.027565847375662 23.903740472474382 0 0 0
733 5 1 17.1463737346694 8.322206894714826 33.306754866226626 0 0 0
5209 60 1 2.1578314753153323 9.324878786679514 38.61579127804364 1 0 0
791 6 1 8.724693433649279 10.431262722521579 27.196565400345108 0 0 0
8280 55 1 10.066578746721833 0.28534771461483216 35.50324734602036 0 1 0
6132 39 1 4.085704807692649 0.032595386768523686 40.03739373711878 1 1 0
6960 17 1 5.313696303138824 11.333820925381147 35.666064766152864 0 0 0
7279 16 1 3.342340732232107 14.935939332926118 32.31825431711884 1 0 0
1772 16 1 16.344934778972576 21.872034742256925 31.497531674144554 0 0 0
7551 57 1 1.1863935613564638 16.820181622079822 21.038330727786725 1 0 1
723 5 1 10.164663939955531 8.19537673199574 22.746890093223843 0 0 0
5992 48 1 1.3984213203479856 21.819804009310236 36.10587619849315 0 0 0
4430 35 1 16.258340058138316 23.460448133281023 23.89962048211062 0 0 1
5208 60 1 2.01469804190803 8.682874681132528 37.21002055472175 1 0 0
7076 58 1 1.7080317731313603 12.616247334569978 23.06828157625956 0 0 0
6955 17 1 2.141290584222799 10.70496058690598 30.22214160252298 0 0 0
447 36 1 13.001418734175468 3.1402369731331277 25.957369243238755 0 0 0
6496 54 1 7.829140220840561 6.405545671917707 38.965588929997395 1 0 0
7496 57 1 5.084973682378459 17.561120930355806 27.59014818907158 1 0 1
7494 57 1 3.644166709101804 17.363929866939998 25.549818700691706 1 0 1
6354 54 1 6.132344930819924 2.3593467842367115 36.27078127660103 0 0 0
7285 16 1 7.501007869567371 15.437113734938253 38.55037158623466 0 0 0
5369 41 1 2.381201635471899 13.752792125525842 38.70024407010719 1 0 0
1039 8 1 15.843850169970937 12.836821264875574 31.568329318321588 1 0 1
7084 58 1 6.892163209391991 12.91204025810559 31.802247271439597 0 0 0
6462 1 1 2.6363908728547214 3.8425720965817516 25.35789054904272 0 0 0
1724 14 1 14.695177135720488 19.367221156977127 35.20536310315423 0 0 0
1725 14 1 15.099045049103886 19.859505224126057 36.628011028401936 0 0 0
5689 46 1 1.349545351380008 17.455270185257866 36.570764969095826 1 0 0
3709 58 1 11.252416991436624 13.268735388522607 38.10124580438812 0 0 0
1770 16 1 14.939043409457001 21.853093249719475 29.362300421076128 0 0 0
1042 8 1 18.35625458230687 12.259516987975296 34.257585769989134 1 0 1
444 36 1 10.922978073102936 4.142426233454082 22.81907784472887 0 0 0
206 2 1 7.380602539952749 1.170106138301662 23.898738433710466 1 0 1
3217 45 1 16.56579509548678 10.48393734614912 24.260013073950496 0 0 1
6742 9 1 7.200091996421792 8.160387259509168 31.253797817413563 0 0 0
670 37 1 8.56076071871583 5.714979165394774 25.649998842086134 0 0 0
2582 25 1 14.496377956723029 5.33935597540756 21.82801049218799 0 0 0
6348 54 1 1.543657305123318 2.5206152218405626 30.207190430021967 1 0 0
7605 21 1 7.633385388996315 19.800307167881105 38.367256821558556 1 0 0
2102 19 1 14.469923359008249 25.91570568635395 29.793153263976585 0 0 0
8062 63 1 8.8937731044017 24.734720336923726 39.5413312236912 0 0 0
7086 58 1 8.20495295299985 12.807787123015169 33.96403516497763 0 0 0
7835 62 1 4.104389405650958 22.012030620532094 27.920211642095282 0 0 0
7599 21 1 3.465829480305713 19.03173799495497 32.12206744405016 1 0 0
8276 55 1 6.715503896615764 26.593501187062262 31.646481803699007 0 0 0
6962 17 1 6.478398548385423 11.174104023200577 37.91002330678757 0 0 0
7847 62 1 13.044616724261651 22.409245267265362 39.90270893495279 0 0 0
448 36 1 13.501595792488963 3.930815835043314 27.170741480707527 0 0 0
450 37 1 11.081973875164552 5.3434266711276095 30.06827244314774 0 0 0
2117 34 1 17.66693847075241 1.4345150585512354 27.463850776730865 0 0 0
6469 1 1 8.31273272270575 3.659771562519632 32.4454663822721 0 0 0
1294 12 1 13.299141757579559 17.076042196435992 27.25797064665747 0 0 0
6461 1 1 2.556917753630538 3.363314648669984 23.931092957542592 0 0 0
1808 17 1 6.057500098375667 24.11473231812595 23.312297749736317 0 0 0
1809 17 1 7.193990628084477 23.498140198467187 24.025658755698323 0 0 0
1810 17 1 7.402805749339952 24.028176881457664 25.42322035390063 0 0 0
1811 17 1 8.349489579814168 23.3431074363651 26.327974522649566 0 0 0
1812 17 1 8.538393744178608 24.000392926757595 27.694011700528435 0 0 0
1813 17 1 9.766228642746883 23.467632272708105 28.50935454518004 0 0 0
1814 17 1 10.049174409737065 24.165909609084988 29.756927762950227 0 0 0
1815 17 1 11.0002398605808 23.40125107004845 30.74860508623155 0 0 0
6476 1 1 12.77588592761912 4.8564986696700965 40.037325418685164 0 0 0
1719 13 1 11.214046358916384 19.96297686577547 30.07868732514052 1 0 1
7497 57 1 5.2206452383653446 17.59695934210378 29.142975662363625 1 0 1
6130 39 1 2.7504283680201635 0.03954245835409441 37.87558402098925 1 1 0
1721 13 1 12.104280077252682 19.818453843639514 32.38502312310672 0 0 1
1296 12 1 14.767666125574394 17.378391850563272 29.225502046426712 0 0 0
6491 53 1 4.297157484501451 7.141480808783748 33.584949684690244 1 0 1
220 58 1 16.8492561268199 1.8340550934192776 38.7579630219021 0 0 0
7600 21 1 3.541842857006517 19.45797622998685 33.595021057053934 1 0 0
6746 9 1 9.704068347035607 8.811142222450133 35.53871125900319 0 0 0
1289 12 1 9.607728858056825 16.137124936507668 21.858263230533417 0 0 0
7282 16 1 4.920965539692028 15.890968007756015 35.70303596470799 1 0 0
6352 54 1 4.664334322623216 2.5090311542494566 34.24238497541593 0 0 0
7286 16 1 7.6280665636848335 15.813589912294846 40.047493879570396 0 0 0
1717 13 1 9.490647465775266 19.398056171210488 28.184804456542956 1 0 1
6460 1 1 1.0630023302379275 3.3017876847287546 23.394491598202357 0 0 0
221 58 1 17.04635271113922 2.512402781834352 40.124918576421706 0 0 0
6713 53 1 2.8452179695170665 6.966009975276973 31.611398203727646 1 0 1
456 37 1 15.617124644934364 6.157121802520565 36.190389901015166 0 0 0
375 32 1 17.63421027933533 18.754171286798194 26.560007803809363 0 0 0
2099 19 1 13.188333023979753 25.749116687195013 26.176284634122716 0 0 0
2416 32 1 17.135357687584605 19.36501064995849 25.216246209551368 0 0 0
6957 17 1 3.6358587975086114 10.688218462277042 32.236595054185145 0 0 0
7556 10 1 9.101400363565425 16.7981199870445 34.3554162542292 1 0 0
8279 55 1 9.417442452691207 26.115074703772507 34.40291021164243 0 0 0
1037 8 1 14.653610842940877 12.899094539462672 29.27440480060868 1 0 1
7842 62 1 9.57965586256319 21.02903781017753 34.78621851555656 0 0 0
7553 57 1 2.5635108543134235 17.03711569456601 23.25531760341116 1 0 1
6745 9 1 9.706453261775952 8.703532042390888 34.02818180619418 0 0 0
1880 19 1 15.856615988519401 25.654729122558702 31.99530914063736 0 0 0
5691 46 1 2.745159663684761 17.626337107500003 38.65214674410726 1 0 0
6475 1 1 12.881533682968534 4.691817398481548 38.55832441961989 0 0 0
8343 58 1 12.630415494332908 13.568702100783133 40.23416920416553 0 0 0
457 37 1 15.781437202464453 6.906626923038226 37.47136495213784 0 0 0
6711 53 1 1.3306978536915741 6.769979598104446 29.570758742875537 1 0 1
830 7 1 5.362544326630923 9.46957425512542 21.586314079441408 1 0 1
1275 52 1 8.440870885061573 15.190111870266655 26.920325763622394 0 0 1
7559 10 1 10.98753097146854 17.72524778577551 37.61731732009004 0 0 0
2116 34 1 17.67119841691137 1.08693230156482 25.94839139117085 0 0 0
7500 57 1 7.7294346039901 16.732476415601745 32.16993649447257 1 0 1
8271 55 1 3.275495566566805 25.47119004382979 26.37568523000698 1 0 0
1802 16 1 11.757009346645255 21.70214078481671 23.935999600839185 0 0 0
7080 58 1 4.175515990786449 12.813710172392327 27.44848293856792 0 0 0
449 37 1 9.956230718665775 6.019993907267078 29.235159496311304 0 0 0
5368 41 1 2.188380892149639 13.265749561105906 37.32942342854864 1 0 0
6959 17 1 5.095828151154668 10.770381061936288 34.27540174497382 0 0 0
6465 1 1 5.47741920692214 3.8678003293930385 28.07895355180157 0 0 0
6350 54 1 3.3905306218179927 2.7796331548185704 32.1067929642353 1 0 0
7554 57 1 2.421774564882764 16.82455522692731 24.751923638167607 1 0 1
1882 19 1 17.46160113563659 25.809083815806797 33.990097289468686 0 0 0
7276 16 1 0.9444159453540186 15.599659030570342 29.420709346712382 1 0 0
2100 19 1 13.200663574347601 25.833287774449666 27.71993408582432 0 0 0
3215 45 1 14.992545996533945 10.632230626593884 22.235324811585585 0 0 1
831 7 1 5.761637077519883 10.180178911631295 22.915750089054953 0 0 1
8059 63 1 5.929391942957441 24.12645159342973 37.039019365872164 0 0 0
1060 14 1 15.194857588693704 15.183972322881328 36.34052301280845 0 0 0
1063 14 1 16.874514522457996 15.587922472046076 39.82602522817524 0 0 0
7560 10 1 12.207895547139078 17.340004686867204 38.46858020884925 0 0 0
1272 52 1 6.370337539301968 14.169396007957173 23.671671216635158 0 0 1
7561 10 1 12.38834651498562 18.00464922815609 39.87370378789014 0 0 0
7601 21 1 4.867627819703277 19.901960424977386 34.2336387967631 1 0 0
7079 58 1 4.046298213971001 12.109193168177917 26.103006061211918 0 0 0
8275 55 1 6.277171203465284 25.889476240189676 30.298741922964858 0 0 0
445 36 1 11.594850492938932 3.3071245750874056 23.900156486684253 0 0 0
7284 16 1 6.150041583452861 15.844093721595897 37.935201850294945 1 0 0
4766 41 1 2.606411074236778 4.112332966230931 37.0486475289503 1 0 0
1301 12 1 18.512931399634684 16.819032744942827 34.388468236052304 0 0 0
8282 55 1 11.686741824819531 0.5763908448869466 37.418775056745766 0 1 0
1821 17 1 15.223516186239584 23.43534902717771 36.86638972399971 0 0 0
1723 13 1 13.273521746416856 19.565300667494736 34.72082657115284 0 0 1
6471 1 1 9.886526832227213 3.7529443569649352 34.45123684367436 0 0 0
7498 57 1 6.531643016496571 17.20297278076045 29.830957377033204 1 0 1
7077 58 1 2.617010080167686 11.82831726713133 24.004472552753644 0 0 0
3451 27 1 17.128963409469804 15.01099128551396 26.47432399059642 0 0 0
1061 14 1 15.226346630907074 15.570308646531638 37.78062023243024 0 0 0
1816 17 1 11.338223783625885 24.12451431683989 32.01017223739821 0 0 0
7495 57 1 3.788868333591639 17.00699243411844 27.02799731572095 1 0 1
207 2 1 7.927130855965066 1.9131904684128127 25.147378831677596 1 0 1
1062 14 1 16.486867576277774 15.107561652075095 38.47129015476223 0 0 0
5367 41 1 1.0200436665854193 13.787764024592224 36.544838932440356 1 0 0
1271 52 1 5.37857218581759 14.665651470643166 22.64376007073605 1 0 1
2094 18 1 9.156379581123513 25.828985387234635 21.03525181267671 0 0 1
7078 58 1 2.704423316388146 12.469432741095114 25.41817630111418 0 0 0
6129 39 1 1.544651303535164 0.4954079053141757 37.074371402641276 1 1 0
6494 53 1 6.272000836947279 6.2286562873899864 36.87326948911576 1 0 1
1817 17 1 12.366422971650145 23.438239627787812 32.86161299445811 0 0 0
7083 58 1 6.887570935758664 12.784666952471333 30.286249145816882 0 0 0
3926 32 1 14.170325397006794 19.039117993458394 21.28338753043066 0 0 0
7836 62 1 5.4258264427849685 21.409161400570984 28.282501666517767 0 0 0
6495 54 1 6.642993250750651 6.966108653284812 38.166815924421186 1 0 0
7596 56 1 0.6143916231967247 19.463744558209 29.517991922087568 1 0 1
6473 1 1 11.446418627456422 4.3201769398193415 36.419061133528345 0 0 0
1299 12 1 17.01509587723875 16.775860815750615 32.25767189843171 0 0 0
7837 62 1 5.972446195442399 22.10377463337982 29.56234487911389 0 0 0
5993 48 1 1.5744124033155629 22.381464605498614 37.554955186078914 0 0 0
4429 35 1 15.180144129393318 23.965568167253267 22.975598038426742 0 0 1
3214 45 1 13.615034239090155 10.280448505145442 21.745817425400347 0 0 1
1711 13 1 5.052996316955643 19.397939963274407 21.880794369079087 1 0 1
7081 58 1 5.459501206065832 12.641561905408025 28.209967159136326 0 0 0
1807 17 1 5.68493112879365 23.44964401829983 21.97477275298658 0 0 0
1881 19 1 17.297118390317802 25.677740078777713 32.52272327999441 0 0 0
212 2 1 11.004904856441579 1.244710742075474 30.664764823786506 1 0 1
6131 39 1 2.994740896667315 0.6775203954321241 39.23570981505195 1 1 0
7844 62 1 11.019807742048489 21.245028090570496 36.85016017461783 0 0 0
6466 1 1 5.592227559147395 4.177027276011763 29.59302894246039 0 0 0
7598 21 1 2.0787108089053983 19.28026421017091 31.522131470563295 1 0 0
7281 16 1 4.773040906500853 15.271407737909069 34.30231286691667 1 0 0
1722 13 1 13.173178398167877 19.178794507091144 33.250616277667 0 0 1
1300 12 1 18.06003542352706 17.522786005128786 33.1149847637628 0 0 0
1819 17 1 13.67398164027802 23.5167091706317 34.929330821524864 0 0 0
1769 16 1 14.864025012175023 21.764341949649463 27.836466842751435 0 0 0
8053 63 1 1.4618266620587121 24.21600076226762 30.765616348636446 1 0 0
6493 53 1 5.57215554358222 7.082884880333174 35.8630720032182 1 0 1
7280 16 1 3.5308428872296593 15.704087793141614 33.55926662041686 1 0 0
1040 8 1 17.030443793499426 12.161995525212925 32.1202313003563 1 0 1
2115 34 1 16.38779122945099 1.5423775395092378 25.234486565845085 0 0 0
6464 1 1 4.088945046087678 3.959005972101738 27.51098263411266 0 0 0
7833 62 1 3.164329648647215 21.832081678740554 25.477062107568827 0 0 0
6964 17 1 8.071595279196552 11.294157219435371 39.95471574890738 0 0 0
216 2 1 14.321110256930682 1.4637942441836327 34.40984867994816 0 0 1
7597 21 1 2.0226268067932494 19.12470798402035 29.986354902183216 1 0 0
7552 57 1 1.3965079857615064 16.38746788577393 22.519091838029507 1 0 1
1059 14 1 13.99637049051596 15.652665363532268 35.54692094277154 0 0 0
7840 62 1 8.40147525350819 21.107440869557486 32.43965215460154 0 0 0
1276 14 1 9.576169061112495 14.559736710060017 27.76851203968387 0 0 0
3450 27 1 16.633440574289715 14.19641899448664 25.277514945419075 0 0 0
1290 12 1 10.49705275629497 16.920884785681572 22.841187085660337 0 0 0
6734 9 1 1.4458062278934323 7.999971330448986 22.909843532940442 0 0 0
6470 1 1 8.533894541589783 4.163405267087888 33.85919520145039 0 0 0
6733 9 1 0.6881881991725701 7.21836583464347 21.892599080449667 0 0 0
7087 58 1 9.562402652933763 12.621928535805637 34.54820381642942 0 0 0
6467 1 1 6.831930107236757 3.6090331784599115 30.286181336414103 0 0 0
3453 27 1 18.449807681580673 15.017540389060962 28.720225590109745 0 0 0
452 37 1 12.729021357081459 5.723101475849436 31.927671736436253 0 0 0
6744 9 1 8.37568326445603 8.628179437466907 33.32403053845947 0 0 0
1884 19 1 18.83105966096264 26.144137547044753 36.09412134475656 0 0 0
454 37 1 14.088038361901173 5.8813619927149 34.11283383903458 0 0 0
7834 62 1 3.161258891931312 21.309001796192614 26.916835005247084 0 0 0
1879 19 1 15.830152720490114 25.810068525964816 30.441767072698624 0 0 0
6743 9 1 8.573463013949768 8.34149705777906 31.860038878522488 0 0 0
765 6 1 17.16571485475476 11.007863614567253 38.48134493075006 0 0 0
6737 9 1 3.9846230581014814 7.805932375724006 25.858538562396284 0 0 0
7838 62 1 7.013324441690067 21.292082623250312 30.263780624053176 0 0 0
1718 13 1 10.920805297337958 19.17510615820715 28.793656978382195 1 0 1
6468 1 1 6.988184249878437 4.077459091376054 31.758971847367008 0 0 0
5206 60 1 1.2124972021203468 9.049807965072677 34.743334128564186 1 0 0
2101 19 1 14.637086475155547 25.983238292316855 28.27566687004969 0 0 0
6351 54 1 4.022024444447844 1.7918126923158364 33.09289539919473 1 0 0
1298 12 1 16.699236553423223 17.44801868553755 30.952372487638243 0 0 0
724 5 1 11.326986830258571 7.677275802407637 23.56443863345451 0 0 0
213 2 1 11.62571384076248 2.09856271974428 31.648749601196478 1 0 1
1818 17 1 12.744945311394673 24.310271783416614 33.997578826203465 0 0 0
6357 54 1 7.944688061568065 1.9408056933011217 39.6461230748125 0 0 0
722 5 1 9.956988909505077 7.451559413945106 21.435299780036555 0 0 0
1801 16 1 10.305428249983972 21.7471360381171 23.42746166404043 0 0 0
731 5 1 15.849095514769886 8.197723738535572 31.149354462186338 0 0 0
8060 63 1 7.317188748393499 24.586928890857145 37.45465755911173 0 0 0
3220 24 1 17.97963256790567 9.405606107822393 27.831084853552117 0 0 0
6738 9 1 4.137648740989969 8.439553091891865 27.24149478039349 0 0 0
7557 10 1 9.449159897107728 17.450358771425794 35.62081628224669 1 0 0
2113 34 1 14.957857560555802 1.590583738153084 23.157961691301455 0 0 0
8272 55 1 3.811771129853286 26.505460890061517 27.359693841271902 1 0 0
214 2 1 12.376318311316986 1.2983063405449364 32.68123978892366 0 0 1
668 37 1 7.178495498033862 5.6778169792664785 23.572186174876474 0 0 0
725 5 1 11.651173403209555 8.291867901071106 24.91550956412063 0 0 0
455 37 1 14.385913199683799 6.580165026771758 35.43167657109303 0 0 0
6474 1 1 11.526543018125837 4.8124829031902525 37.850312160217165 0 0 0
3219 45 1 17.872252231714594 9.867942624806972 26.39759232601018 0 0 1
2098 19 1 11.845792108949349 25.653009121582205 25.390322143373517 0 0 0
7283 16 1 5.935052458555542 15.196939588331857 36.60063748946351 1 0 0
219 58 1 15.973748382279723 2.5789171346960207 37.740407292615174 0 0 0
3876 31 1 17.894746367014186 16.696801109914727 21.16134124469033 0 0 1
8281 55 1 10.990028125780514 26.26365178833205 36.510125520090234 0 0 0
1273 52 1 6.982085086358022 15.049362985328933 24.761175606453087 0 0 1
7831 62 1 2.1649131712563245 21.448149362138693 23.050719393462753 0 0 0
228 36 1 16.136186993908566 3.6748403319609277 31.39736051677164 0 0 0
1292 12 1 11.742181011068315 16.856647393781387 25.108635694712806 0 0 0
766 6 1 17.143723305517753 11.085971255666855 39.985658605964765 0 0 0
8270 30 1 2.4466780682735765 26.216078540307404 25.271164725992694 1 0 1
6958 17 1 3.9059535146364652 11.34371173746604 33.56189788764815 0 0 0
6463 1 1 4.032231878371168 3.5548593587623047 26.00837903832504 0 0 0
6221 32 1 15.950342235098436 18.5798415704217 24.609249665244846 0 0 0
8274 55 1 5.39746161434277 0.05739042333291388 29.373775493734176 1 1 0
6347 54 1 0.9783490076026742 1.4755419555418157 29.220451354241057 1 0 0
7085 58 1 8.259072621689779 12.545075123979904 32.466754896005426 0 0 0
1768 16 1 13.425901805688342 21.960953249930895 27.46163713930516 0 0 0
8061 63 1 7.5283909972123135 24.267368390884666 38.96413873779122 0 0 0
6741 9 1 6.9861351583672215 7.805411361735422 29.7834274884005 0 0 0
6356 54 1 7.4629540219783035 2.7815839705705 38.43320492373455 0 0 0
453 37 1 12.985323575683784 6.483990655885903 33.22697435398151 0 0 0
5995 48 1 2.8906222609726786 22.465067156196437 39.78959439076938 0 0 0
8058 63 1 5.680715230664881 24.196371692965865 35.52840425365547 0 0 0
2114 34 1 16.325800745396762 1.744341409104214 23.744331401094406 0 0 0
5692 46 1 2.8361147936710247 18.141120642661306 40.03287486599562 1 0 0
727 5 1 13.109968943035158 8.060762270645869 27.014645212930354 0 0 0
7845 62 1 11.560251458732248 22.22835508401524 37.90541182966845 0 0 0
7558 10 1 10.573477203205542 16.778274745016667 36.48206663680887 1 0 0