LAMMPS data file via write_data, version 23 Jun 2022, timestep = 11111117

9706 atoms
2 atom types
9690 bonds
3 bond types
9674 angles
3 angle types
9658 dihedrals
3 dihedral types

0 36.89775039 xlo xhi
0 26.67072 ylo yhi
15.973439700340194 220.77816469956775 zlo zhi
0 6.443602588241482 0 xy xz yz

Masses

1 14
2 15

Pair Coeffs # lj/cut/omp

1 0.0914 3.95
2 0.1947 3.75

Bond Coeffs # harmonic/omp

1 449.5 1.53
2 449.5 1.53
3 449.5 1.53

Angle Coeffs # harmonic/omp

1 62.0967 114
2 62.0967 114
3 62.0967 114

Dihedral Coeffs # opls/omp

1 1.411 -0.271 3.145 0
2 1.411 -0.271 3.145 0
3 1.411 -0.271 3.145 0

Atoms # molecular

1 2 1 7.86427162192244 1.1462820113933145 20.771276937563428 0 0 0
2 2 1 8.556408278019168 0.29845018076673485 21.851729030487686 0 0 0
3 2 1 9.176563266979798 1.2193453614339742 22.945755751592635 0 0 0
4 2 1 9.792282119090686 0.557291821644755 24.233901030681558 0 0 0
5 2 1 10.92066397062 1.3200288639564344 24.882692826107323 0 0 0
6 2 1 11.492184054351464 0.5483791471559787 26.102103076949614 0 0 0
7 2 1 12.183355614856856 1.474084155935037 27.102806960795206 0 0 0
8 2 1 13.000940592667119 0.6008241201566878 28.018760643502176 0 0 0
9 2 1 13.868669423062297 1.3369993016398278 28.978243197797426 0 0 0
10 2 1 14.472948453180548 0.4023495909512771 30.055998257371662 0 0 0
11 2 1 15.789525144357539 0.8867905988507703 30.75415824263343 0 0 0
12 2 1 16.16773428421159 0.10781022953194135 31.961112021222206 0 0 0
13 2 1 17.23387397155207 0.7723958247235555 32.81928049724287 0 0 0
9045 17 1 6.516048031521698 21.14114824288356 25.320530294345794 1 0 0
9278 61 1 4.524782617629604 22.64430503694406 28.437321587091176 0 0 0
3786 39 1 15.037245320217362 14.393403891451477 18.918630177718196 0 0 0
457 52 1 8.078053548882073 5.676726273925188 20.846843711666462 0 0 0
3040 25 1 17.800976303398155 8.056461636841806 16.238095993765384 0 0 0
9275 61 1 1.887540082685455 23.31319804908977 25.567717644458547 0 0 0
221 2 1 4.736558295458385 1.2296566904148976 16.92695153536357 0 0 0
222 2 1 5.474403004254523 0.3268430364130469 17.90839800296796 0 0 0
223 2 1 6.455795867680309 1.1247112358425617 18.73711414360387 0 0 0
224 2 1 7.098283557793877 0.2719662236896835 19.796835210169377 0 0 0
4987 35 1 17.697647129549484 25.675346989082406 16.45203989027115 0 0 0
3866 5 1 13.484065178814674 14.499103265808913 16.8698858723145 0 0 1
306 53 1 10.019393403741756 2.6598679136905914 17.683190190914654 0 0 0
307 53 1 10.789602086773522 3.5114992564481313 18.692964522756558 0 0 0
308 53 1 11.659691298168175 2.6032832872363403 19.678876047777976 0 0 0
309 53 1 12.373009558327928 3.500545911502582 20.635093468586636 0 0 0
310 53 1 13.235098496066168 2.786977857668122 21.697375566894678 0 0 0
311 53 1 13.78036286838865 3.6147721979392475 22.891082559142127 0 0 0
312 53 1 14.656681143937044 2.705495633295378 23.719290808568612 0 0 0
313 53 1 15.09434891540858 3.3789699279072707 24.975287764221378 0 0 0
314 53 1 16.087422745279632 2.6136925983772845 25.887004189665987 0 0 0
8218 55 1 4.328032857670472 12.01882710934256 22.840952697407374 0 0 0
9050 17 1 10.288105528930727 20.24250645017276 30.276542996852164 0 0 0
9496 63 1 5.427735380932603 25.006846691963027 24.319750610807105 0 0 0
7468 61 1 15.445742261836045 2.286590441306637 35.92065086294434 0 0 0
1205 7 1 10.060944530341894 11.678348497742952 17.9189830051807 0 0 1
1433 9 1 7.707548252814118 14.397831306465015 21.298603113015634 0 0 0
1735 13 1 5.631980638712617 18.43937593598817 18.188138475111835 0 0 0
383 52 1 11.578722103395654 4.827605731055865 26.182573100117516 0 0 0
384 52 1 12.12775378257386 5.605097766353943 27.319502123589885 0 0 0
385 52 1 13.28076222507971 4.900860376411261 28.053495624022638 0 0 0
386 52 1 13.649306224743142 5.5639598991848835 29.33861484731703 0 0 0
387 52 1 14.978103320430952 5.01339502162146 29.922668758088335 0 0 0
388 52 1 15.420900611477915 5.582163969927607 31.288329267028466 0 0 0
389 52 1 16.49014677139904 4.675291547672914 31.895860702616957 0 0 0
390 52 1 17.203427271284873 5.383198974425423 33.02939270484197 0 0 0
4536 42 1 17.287392883504914 21.153087592972437 16.48863692793349 0 0 1
5232 36 1 1.7520629849071099 2.311127977609993 30.983064767460093 1 0 0
7682 6 1 3.9767011196447744 5.275231902380986 27.411841651361684 0 0 0
8825 58 1 0.9214508516544053 18.144593694682758 24.55405114181697 1 0 0
6000 44 1 2.646876173156395 11.175071482548988 33.17634455258059 0 0 0
8054 54 1 4.896179355383773 9.779632137307889 29.557803337992244 1 0 0
9489 62 1 0.22515571880696778 25.94862804988516 17.237101248121757 1 0 1
9502 63 1 10.528976738685204 24.730802934237317 29.919328704677817 0 0 0
7233 58 1 2.6963319088948436 0.4057137196817372 26.765813882607212 0 0 0
8603 12 1 3.4146095331481257 16.643739686482267 21.3066930453627 0 0 0
2054 17 1 17.806651831954845 22.22285737147047 33.96537673463489 0 0 0
458 52 1 8.863548821589104 4.802764684017956 21.80018919084248 0 0 0
459 52 1 9.369300034635915 5.582269151207033 22.976846402294292 0 0 0
460 52 1 10.260175016678813 4.868602006883631 23.995397846056584 0 0 0
461 52 1 10.642853325341823 5.621555817300577 25.28786646628577 0 0 0
541 55 1 9.899515788562045 7.070295609171291 18.11721781090962 0 0 0
542 55 1 10.589745418753317 7.984520100905838 19.13653736421557 0 0 0
543 55 1 11.548324495632317 7.211841964503947 19.99182590983009 0 0 0
544 55 1 12.018615069968687 7.887849274200715 21.239686390702232 0 0 0
545 55 1 13.079495902962057 7.045378358367703 21.969789437817777 0 0 0
546 55 1 13.062709439882276 7.502494714784016 23.451941215391834 0 0 0
547 55 1 14.251033789323719 6.813938284313666 24.105514140395854 0 0 0
548 55 1 14.647586255537696 7.35554884119024 25.433892429294353 0 0 0
549 55 1 16.13489571894586 7.116627396485874 25.749222089227786 0 0 0
550 55 1 16.48269468567189 7.363128330104814 27.218051949822232 0 0 0
5619 42 1 0.4758792259390848 7.3010474066412785 30.276668116924508 0 0 0
551 55 1 17.899504941042252 6.931581571397994 27.625817737863827 0 0 0
7077 48 1 4.6216805093291535 24.623686198606748 34.78921556869986 0 0 0
3867 5 1 14.14097160626698 13.652274990096355 17.98050115109203 0 0 1
9276 61 1 2.6866142381255464 22.58187606660844 26.569241602472296 0 0 0
1429 51 1 4.482221488712928 14.67792433200395 17.34895039776966 0 0 1
9279 61 1 5.061300549102248 23.186488616227948 29.785920258383264 0 0 0
764 55 1 8.854708382782267 7.800757885863146 17.281410627863607 0 0 0
1653 11 1 9.557044708399097 16.81471864587343 16.848102786030246 0 0 1
766 6 1 5.454646158659933 9.28260499816202 18.231692051381533 0 0 0
767 6 1 6.334212560343139 10.098400403440577 19.153952451500746 0 0 0
768 6 1 7.007478332825185 9.214590187666271 20.144140308773043 0 0 0
769 6 1 7.624714454631402 10.191660562545449 21.144973317079604 0 0 0
770 6 1 8.37416093103004 9.398424012427165 22.141639189129403 0 0 0
771 6 1 9.112536674345385 10.253708648223414 23.21089079564837 0 0 0
772 6 1 10.06112676712482 9.432972784240263 24.082817975135875 0 0 0
773 6 1 10.559416540681916 10.111780820545706 25.381628183281947 0 0 0
774 6 1 11.621332849433545 9.323230829518122 26.006135211982212 0 0 0
775 6 1 11.8957157645502 9.65488141447976 27.483808956010257 0 0 0
776 6 1 13.291130173097896 9.273267545432063 27.922765329529113 0 0 0
777 6 1 13.671337286960137 9.756515655877484 29.282788386875822 0 0 0
5538 20 1 0.9473820471814706 4.980469763549535 36.31879059937284 1 0 0
7679 6 1 1.750155228860222 4.654673721520791 24.126997272291128 1 0 0
8060 54 1 9.528903262125539 9.889942588999624 35.70812760115848 0 0 0
8450 35 1 6.90226326470359 13.629592298975897 32.87580828018058 0 0 0
4312 28 1 14.831188138803954 19.13030721259801 18.703653941939066 0 0 1
4090 27 1 18.393822774474916 15.779857238855984 17.281918222453253 0 0 1
7078 48 1 5.3931776287355255 25.56312219668907 35.677506694054394 0 0 0
7678 6 1 0.9838111304539521 5.6988611605592885 23.32379596079593 1 0 0
8216 55 1 2.9773027285807796 11.803913485750458 20.581593707130704 0 0 0
1431 9 1 6.027935278419115 14.630027901760927 19.408750954192826 0 0 0
989 8 1 16.08117971179927 11.336599913465184 26.03395944813083 0 0 0
990 8 1 16.56069005693856 12.030089321834442 27.314983237271516 0 0 0
991 8 1 17.714070338693418 11.302862526573788 27.968810167427726 0 0 0
7072 48 1 0.6851971199039374 25.23085278072545 29.86905609041122 1 0 0
6307 64 1 1.1852651592598342 15.824551995316467 31.127085575469117 1 0 0
1441 12 1 18.069961294127516 16.812801411658498 29.153642432111525 0 0 0
2498 18 1 18.351894008225937 1.357145606978343 22.50001994793782 0 0 0
8452 35 1 8.594840256645286 13.497584418395103 34.864429542246704 0 0 0
8217 55 1 3.1873172746620337 12.538525809240632 21.91076373687871 0 0 0
7237 58 1 5.973735945691068 0.16716074273666653 30.795796151734688 0 0 0
8602 12 1 2.004067748782687 16.36819233946211 20.83012940370557 0 0 0
9049 17 1 9.533883579930155 21.10962164422036 29.267099739133222 0 0 0
9280 61 1 6.024112253417981 22.301635822248258 30.567008874028634 0 0 0
7452 61 1 2.8433611906175216 2.656018535984614 19.93378702214394 0 0 0
4542 31 1 18.592987836614096 22.545151274203864 23.68484911139725 0 0 0
8827 58 1 2.6466093967602857 18.17103170635754 26.456890308763867 0 0 0
1211 8 1 14.301667217898428 11.37777421537411 24.195764558112547 0 0 0
1212 8 1 15.029465119536258 12.119342900746737 25.33092197485273 0 0 0
1213 9 1 10.370613650488128 14.533968984145456 25.540069092174917 0 0 0
1214 9 1 10.942390865328273 13.8445490020136 26.737784788811965 0 0 0
1215 9 1 12.104131253725873 14.477362048886398 27.474986035619633 0 0 0
1216 9 1 12.740102628309982 13.589563324301574 28.578686849987026 0 0 0
1217 9 1 13.786261842077282 14.328185006420322 29.401759977875003 0 0 0
1218 9 1 14.34176578885869 13.521191204973777 30.5637798383908 0 0 0
1219 9 1 15.287910959934258 14.253090804921454 31.53558322498765 0 0 0
1220 9 1 15.6873556971451 13.467630640580012 32.80731287835124 0 0 0
1221 9 1 16.902694859923965 14.112750474029024 33.43921123075886 0 0 0
1222 9 1 17.43298604061729 13.412625955322703 34.67701243451812 0 0 0
992 8 1 18.226984543543672 11.81025287702035 29.31015671095394 0 0 0
7689 6 1 9.233638201745265 4.491746152628308 34.63970310740338 0 0 0
1656 12 1 11.313430855831243 15.917903438259012 20.13879871955661 0 0 0
2492 18 1 13.617124385806093 1.6035791020852084 16.54684742451624 0 0 0
3036 37 1 13.203093879799745 5.572356291159865 16.84064300143357 0 0 0
778 6 1 15.097445923436497 9.573864103879115 29.694871190125887 0 0 0
779 6 1 15.2929394040357 9.758253899373203 31.217018767803403 0 0 0
765 6 1 4.803861816035544 10.12184000154363 17.091735053555155 0 0 0
2818 37 1 17.8296117821972 5.1180553819969274 23.03654892205512 0 0 0
455 52 1 6.247265621176946 5.588996183991222 19.03349867543711 0 0 0
1434 9 1 8.308665809220015 13.529211769346162 22.402555706744053 0 0 0
1435 9 1 9.167710393037202 14.317001273637864 23.316350791260103 0 0 0
1436 9 1 9.75941477028593 13.670365834350333 24.510222759235464 0 0 0
1437 12 1 14.932675417456139 16.795713438623086 25.217271766423323 0 0 0
1438 12 1 15.761591163088367 15.982054962448355 26.207024040349243 0 0 0
1439 12 1 16.595853154211124 16.791041024087804 27.111743839141646 0 0 0
7988 33 1 14.068698698521237 7.488729909803282 35.657079122207556 0 0 0
988 6 1 3.8187712966195644 9.276314023244495 16.22060878636655 0 0 0
8048 54 1 0.3357230184063671 10.152418455107934 23.46441443806909 1 0 0
6310 64 1 3.716972735701196 16.558355520122824 34.0250950000264 1 0 0
8052 54 1 3.344358474420228 9.641726631278535 27.618715021594106 1 0 0
6002 44 1 4.1700059959390305 11.217588106760706 35.06663443810763 0 0 0
5625 42 1 5.109756004763013 7.35556748503678 36.33918828009412 0 0 0
6311 64 1 4.386856590838516 15.755474647891152 35.13585190296165 1 0 0
1432 9 1 6.708877492263141 13.645439762010998 20.361556964288106 0 0 0
6309 64 1 2.7517588975343648 15.805367973606474 33.12683452711458 1 0 0
9508 63 1 15.00316847657805 24.632749880555526 35.935036218432145 0 0 0
1657 12 1 12.206652275695363 16.645803604984653 21.055763245676353 0 0 0
1658 12 1 12.605523118959777 15.735293244383563 22.23863072176412 0 0 0
1659 12 1 13.72804620884636 16.485592039527468 23.01282869002587 0 0 0
1660 12 1 13.955937114160141 15.905044089494028 24.444971952220477 0 0 0
1661 13 1 9.710932769650334 18.846739735938847 23.069937724037615 0 0 0
1662 13 1 10.156805373894683 17.97716751268975 24.211003246209373 0 0 0
1663 13 1 11.018891927895327 18.819127184691617 25.189063050347436 0 0 0
1664 13 1 11.674676256369503 18.064190951575757 26.327987462712727 0 0 0
1665 13 1 12.438755202145217 18.8623017661674 27.400053441687803 0 0 0
1666 13 1 13.060220055683924 17.92810547622255 28.364589409094403 0 0 0
1667 13 1 14.10036827157419 18.705450426471668 29.164824359554707 0 0 0
1668 13 1 14.548162796470686 17.992091069836068 30.465988134144812 0 0 0
1669 13 1 15.515714035914582 18.7430048180134 31.194418794830625 0 0 0
1670 13 1 16.253805958597827 17.870339131516097 32.194743452131654 0 0 0
1671 13 1 17.162952433784504 18.652212549260813 33.19486779290929 0 0 0
1672 13 1 18.02063675821615 17.783100340875887 34.186923407729466 0 0 0
9055 17 1 14.168309402868788 20.879376175742188 35.398471548498165 0 0 0
2261 17 1 4.677366781870011 23.396198288387996 16.84222530366084 0 0 0
1654 11 1 9.90995355034287 16.010497436338774 18.050368768300554 0 0 1
9048 17 1 8.850702466956417 20.234336243704497 28.22295174207955 0 0 0
8050 54 1 1.8736096125636146 9.737352115668338 25.452925095954114 1 0 0
6234 2 1 0.6761921702413848 13.785961570595774 36.1261611965258 1 0 0
6692 48 1 2.7305066471894524 20.894163935786644 31.418953385852816 1 0 0
1736 13 1 6.534786560476919 19.22473512374688 19.203208971293165 0 0 0
1737 13 1 7.283071506208795 18.1750268742218 20.01742525996685 0 0 0
1738 13 1 8.069038618617611 18.943025641302476 21.105357304473614 0 0 0
1739 13 1 8.834002652383345 18.03304228346086 22.092296311643913 0 0 0
1819 16 1 12.553651465799296 20.872602841145444 22.004587665380658 0 0 0
1820 16 1 13.749886243458922 21.5516290176626 22.754877088805078 0 0 0
1821 16 1 14.1613567710022 20.771820572110514 23.975468174998166 0 0 0
1822 16 1 15.311809282363312 21.364639296673666 24.768426720673673 0 0 0
1823 16 1 15.77474082625082 20.44682078136684 25.90339315005771 0 0 0
1824 16 1 16.50152939367956 21.180282684425304 26.970068589574097 0 0 0
1825 16 1 17.395200962764292 20.324777034713705 27.905515900920808 0 0 0
5231 36 1 1.1791963444069355 3.0473323045148613 29.748925729419767 1 0 0
1428 51 1 3.6821163321487247 13.874891761566692 16.31797318771968 0 0 1
5012 43 1 1.064066190997246 0.6286734543517853 36.01975809670256 1 0 0
8051 54 1 2.2120884964134353 8.966546513836603 26.79944313292764 1 0 0
3485 25 1 13.095815424968775 10.180591076981575 16.757675258233498 0 0 0
9501 63 1 9.480483389605364 25.57085779071644 29.13084765613244 0 0 0
8451 35 1 7.7063390945172765 14.385492608657819 33.955867858149034 0 0 0
4089 27 1 17.026333389661396 16.28687116427475 16.69776286496901 0 0 1
2040 16 1 10.435672638246825 21.599011299531266 18.77452793075122 0 0 0
2041 16 1 11.110437990714185 20.86415104076563 19.9448130456987 0 0 0
2042 16 1 12.202202271663163 21.636979180351155 20.80307669284139 0 0 0
2043 17 1 9.25858940389475 23.541252095746486 22.943117937215714 0 0 0
2044 17 1 9.801301875201199 22.74581290149945 24.170692499758417 0 0 0
2045 17 1 10.917808140886269 23.416268342202066 24.944109651511326 0 0 0
2046 17 1 11.568028454513096 22.669364663636802 26.076858693454717 0 0 0
2047 17 1 12.487365685041803 23.38412755769614 27.033648678662885 0 0 0
2048 17 1 13.115343497780302 22.38897233555118 27.935098903932793 0 0 0
2049 17 1 14.079638430219957 23.14330311927037 28.910629559688154 0 0 0
2050 17 1 14.762381942307915 22.282420508921806 29.94865019495346 0 0 0
2051 17 1 15.513613098184017 23.068481498548692 30.98906412132297 0 0 0
2052 17 1 16.253860590527495 22.307941441310838 32.05931420256725 0 0 0
7686 6 1 6.694757479069085 5.381498505386875 31.839528239342457 0 0 0
539 4 1 4.478305977828726 5.558238990629463 17.029457282189274 0 0 1
8231 55 1 13.966761588896524 11.767647006041344 36.128905627991564 0 0 0
4541 31 1 18.107165978552835 23.39846912925059 22.497926708212923 0 0 0
8607 12 1 6.487464105287581 16.64662753525915 25.353001074594538 0 0 0
8053 54 1 3.771400432855355 9.021562527302946 28.873576085926388 1 0 0
5235 36 1 4.2346721331255255 3.029759073548971 33.868868206374636 0 0 0
8453 35 1 9.334665352921014 14.35093639465702 35.86547801492111 0 0 0
2262 17 1 5.333055948394825 22.642654427360874 17.960341274478193 0 0 0
2263 17 1 6.270162352106513 23.387500489795038 18.881815933042855 0 0 0
2264 17 1 6.669663650915925 22.664549443200386 20.154213551071265 0 0 0
2265 17 1 7.962588619545026 23.362022113050887 20.714443943527407 0 0 0
2266 17 1 8.43752862949158 22.66301227993409 21.980934424369025 0 0 0
2267 19 1 12.304962158581326 25.69868690056802 20.5289708940038 0 0 0
2268 19 1 12.608186194131736 24.892631016985508 21.790644535871724 0 0 0
2269 19 1 13.544621660686774 25.7907630222972 22.578075827262566 0 0 0
2270 19 1 14.10700294717177 24.996003260099066 23.787423905827914 0 0 0
2271 19 1 15.034805935891475 25.687564926466532 24.709788150331487 0 0 0
2272 19 1 15.655186058932774 24.837805720337073 25.826371355747256 0 0 0
2273 19 1 16.56726607444762 25.552252570816364 26.80483515896433 0 0 0
2274 19 1 17.257427772778556 24.64949762489197 27.776910604280467 0 0 0
1734 13 1 4.633518026560418 19.2172508518793 17.34517672017487 0 0 0
1733 13 1 3.796145738259027 18.331116886545114 16.44360169118936 0 0 0
8213 55 1 0.23613682840357073 12.646181324307602 17.886419084637858 1 0 0
9274 61 1 1.3012350719773365 22.406805141363115 24.55183025495235 0 0 0
8449 35 1 5.994867608279849 14.489037608424226 32.04020786361355 0 0 0
9497 63 1 6.451235073788221 25.742867459618815 25.17613228815231 0 0 0
7232 58 1 2.4700336143596893 0.9781428635597751 25.391736302615755 0 0 0
2488 19 1 9.76810688017225 24.96985779786593 17.571301372794956 0 0 0
2489 19 1 10.965653310439546 25.561384703582192 18.365469335089838 0 0 0
2490 19 1 11.163380233156484 25.098716660280346 19.796548457284537 0 0 0
6695 48 1 4.409749777251873 20.17945868118315 35.010047173390035 0 0 0
392 52 1 19.02657053331893 5.33140831333583 34.86721029036349 0 0 0
2493 18 1 14.419432908977717 0.7647749970595333 17.49187830983506 0 0 0
2494 18 1 15.147344786587333 1.640872448302521 18.551628704605395 0 0 0
2495 18 1 15.807963898992845 0.7709493600744124 19.595659680340017 0 0 0
2496 18 1 16.68316456594614 1.5820519354450535 20.5459170082838 0 0 0
5999 44 1 1.9701110562827584 11.825073971781027 31.94265787853815 0 0 0
1209 8 1 13.066784620344222 11.564659618553454 22.010574314027643 0 0 0
15 2 1 18.63371634062678 0.8291082200771689 35.063872878299165 0 0 0
9492 63 1 2.662644411018093 24.89706316563892 20.212809778356988 1 0 0
4311 28 1 13.980383174992385 18.34189497541024 17.68111185398597 0 0 1
783 6 1 17.962071443832215 9.185731808046015 35.507079118218286 0 0 0
7989 33 1 15.350449231580642 6.949539927320301 36.21654966291564 0 0 0
9490 63 1 0.9481365048655479 25.044835507733584 18.23301981647479 1 0 0
2814 37 1 14.554011986377324 5.4879691235653665 19.06200448924001 0 0 0
2815 37 1 15.96819339996588 5.424797662011483 19.622469620713193 0 0 0
2816 37 1 16.088237327985308 5.4723057262651 21.08826153078741 0 0 0
2038 16 1 8.830400828106905 21.382224014300384 16.687524956499445 0 0 0
8606 12 1 5.501521755484537 15.975384648409825 24.449899773655556 0 0 0
8616 12 1 13.441118516288766 15.681216696880234 34.64368924480614 0 0 0
5624 42 1 4.292549505928357 6.565834429094125 35.354159853460004 0 0 0
4310 28 1 13.416787607134106 19.320050175809758 16.63303064725318 0 0 1
7690 6 1 9.714966882597643 5.282701596124001 35.83277405810529 0 0 0
3037 37 1 14.554912798564136 5.397909381924969 17.551189085787684 0 0 0
5233 36 1 2.748099009637261 3.052962813618421 31.887697001797587 0 0 0
9499 63 1 8.206449616258839 25.50560935136333 26.960877677071274 0 0 0
7231 58 1 1.4754212489863576 0.21795039857115533 24.529992289506083 1 0 0
2053 17 1 17.251002783208378 23.093351773546043 32.907131440035755 0 0 0
9043 17 1 5.082151056206748 21.308610987701854 23.15690740344256 1 0 0
3263 25 1 14.681750356107223 10.074690958646759 18.713678671482974 0 0 0
3264 25 1 15.864600827752747 9.408378369940786 19.394021184431697 0 0 0
3265 25 1 16.198821644313604 9.96200767013545 20.75625930144488 0 0 0
3266 25 1 17.322586179199398 9.27259451611473 21.46090266504726 0 0 0
7449 61 1 0.19429647449549053 3.738598674336082 17.290042474789125 1 0 0
1673 13 1 18.476641782152978 18.543641696263247 35.37930492950895 0 0 0
9051 17 1 11.13254450042866 20.984389770833744 31.294992694293104 0 0 0
6693 48 1 3.261445568752611 20.13098222262034 32.59315960602724 1 0 0
8215 55 1 2.026893615633472 12.592229418827063 19.681457663940318 1 0 0
1655 11 1 10.879646332630164 16.73247626371907 18.88623024811321 0 0 1
8832 58 1 6.942013823684166 18.821808098331797 31.37916915634282 0 0 0
4092 29 1 17.883406331017316 18.798583599409007 22.59328094227743 0 0 0
6694 48 1 4.058166092440247 20.885173981178117 33.64992747159869 1 0 0
3710 39 1 17.454936288148225 13.578937066212307 21.744169042276475 0 0 0
9039 14 1 1.9466776130455028 21.303811473095408 19.21072431047417 1 0 1
1440 12 1 17.392250979349274 15.960783761140927 28.085955288307012 0 0 0
8601 12 1 1.742052259170713 16.817977609768864 19.37335330136895 0 0 0
5998 44 1 1.1569775368689432 10.909962760793881 31.014167202181003 0 0 0
456 52 1 7.394177518918019 4.857961849044357 19.743776874498078 0 0 0
780 6 1 16.657517657007432 9.600589198390361 31.919668419353773 0 0 0
8230 55 1 13.67690283260836 11.201651381125009 34.784226345685994 0 0 0
3787 39 1 16.075180398297718 13.573233141213256 19.63270931842061 0 0 0
3788 39 1 16.927523163817828 14.427618785084325 20.580891495812143 0 0 0
8049 54 1 0.5458540227861068 9.451107650581655 24.76060795268372 1 0 0
9284 61 1 9.204653921434641 22.479950615573518 34.517006830919506 0 0 0
781 6 1 16.750535482888694 9.493365853487623 33.41576735318979 0 0 0
4761 31 1 15.10588133235311 23.5289218005634 18.426363597359856 0 0 0
8836 58 1 9.75400688769497 18.84781706184757 35.57213422362368 0 0 0
316 53 1 17.961452307703517 2.729216558067888 27.669133629643817 0 0 0
9041 14 1 3.2620888407056547 21.22388728524928 21.349271537174275 1 0 1
5623 42 1 3.7041064242548942 7.4119369416044325 34.29894155332758 0 0 0
7230 58 1 1.0831480443408341 1.0449785596650176 23.2763699209109 1 0 0
9277 61 1 3.5280060672672184 23.393242841422644 27.584176242396182 0 0 0
7974 33 1 3.2514946270481655 8.218130851168064 21.501711956638726 0 0 0
4313 29 1 15.315508560571924 18.22734273170151 19.839103808337924 0 0 0
4314 29 1 16.13403475148195 18.969729104797818 20.81439421752854 0 0 0
4315 29 1 16.654065801351535 18.087470458962553 21.990912908957934 0 0 0
8615 12 1 12.676240916753155 16.590495314315383 33.77032801387785 0 0 0
2487 19 1 9.226291943697735 25.783502254955046 16.41954088887439 0 0 0
1223 9 1 18.656644321164062 13.96442020125564 35.31698721197566 0 0 0
7453 61 1 3.6227286414282083 3.4787117186408745 20.907194394435752 0 0 0
4540 31 1 17.363579685868693 22.58744792353589 21.46716536153859 0 0 0
7236 58 1 5.6587142493529825 0.6049594381233226 29.35230953955306 0 0 0
2039 16 1 9.608909376850901 20.714854832146393 17.81843136934457 0 0 0
8058 54 1 7.712871679936355 9.936975310927417 33.822288289119115 0 0 0
9040 14 1 2.4623459640595327 20.39807136117546 20.30116327032143 1 0 1
7451 61 1 2.084943802142973 3.593788587557942 18.97375173124797 1 0 0
8605 12 1 5.121471500700445 16.7183049211515 23.197294999575217 0 0 0
8610 12 1 8.494109582068566 15.94777787271876 28.660095572755257 0 0 0
4762 31 1 15.735661477707977 22.742067551194573 19.512454117115325 0 0 0
4763 31 1 16.607583275844647 23.55115366048231 20.529121026566006 0 0 0
8830 58 1 5.188304160516864 18.984566353264686 29.417194015497934 0 0 0
8612 12 1 10.2505300167554 15.843034859642986 30.694445180984246 0 0 0
1208 8 1 12.115940733064999 12.45487478923067 21.18571224487722 0 0 0
1826 16 1 18.212225930402436 21.205792859065834 28.811462832892442 0 0 0
8831 58 1 5.794657300737002 18.216151058853374 30.551203377133312 0 0 0
7685 6 1 6.197148793834722 4.826407430331853 30.478721071852362 0 0 0
8057 54 1 6.949632163336448 9.152268100142225 32.81776242053752 0 0 0
7973 33 1 2.715856606743565 7.566900234286586 20.19865386231345 0 0 0
1430 9 1 5.302368033015991 13.827430361432802 18.31466967207228 0 0 0
8055 54 1 5.401669526028375 9.088642545006925 30.829533180241988 1 0 0
8214 55 1 1.4792891126644414 11.88384965018177 18.45991687319155 1 0 0
7076 48 1 3.80432236183504 25.393943225715528 33.72413351038992 1 0 0
2260 17 1 3.621321042388763 22.67139545449705 16.021638122713917 0 0 0
8604 12 1 3.8410728962541665 16.079112248494642 22.651000787089526 0 0 0
8445 35 1 3.349989289672787 14.605889440408825 27.792277784986005 0 0 0
7976 33 1 4.789006540804882 8.23831581969959 23.56192428052801 0 0 0
8833 58 1 7.233067471988108 18.11593012940439 32.692773903935034 0 0 0
1210 8 1 13.418642952550373 12.279055873395102 23.29836202719518 0 0 0
8609 12 1 8.082888931710764 16.6213645926176 27.387852487641688 0 0 0
6312 64 1 5.33060103200386 16.591932421519164 35.966423240335146 1 0 0
9054 17 1 13.214248725320731 20.11865306863491 34.43259568671179 0 0 0
2817 37 1 17.55764495716652 5.412153746642346 21.559511271041657 0 0 0
7972 33 1 1.4224089745901145 8.155209679325635 19.46840851786612 0 0 0
7234 58 1 4.054099380685058 0.8958968743711522 27.386926757198243 0 0 0
8447 35 1 4.758001343439154 14.532327837370019 29.89869250456826 0 0 0
3267 25 1 17.84057272352598 9.822516109882683 22.775323013054635 0 0 0
1206 7 1 10.422557967118058 12.391875321769614 19.206566107677496 0 0 1
8442 35 1 0.7953889023041537 13.955166548932683 24.881593220427682 0 0 0
9506 63 1 13.560171695642342 24.418543179191765 33.9309804032403 0 0 0
7987 33 1 13.960281313278175 7.580453898650123 34.13648388937538 0 0 0
1207 7 1 11.470595830592458 11.651594465894727 20.0500060960019 0 0 1
8446 35 1 3.9957879738146733 13.70856552416629 28.851711209987393 0 0 0
9503 63 1 11.041684723608228 25.442529501270872 31.183263857997424 0 0 0
9283 61 1 7.895308399651216 23.068173155642594 33.95927801839487 0 0 0
6690 48 1 1.1552513233617607 20.87033964131236 29.401989884278763 1 0 0
9500 63 1 8.720573949539807 24.682421155962576 28.15996342628806 0 0 0
9044 17 1 5.936827014774547 20.48968642741426 24.050514919136862 1 0 0
317 53 1 18.229347077967283 3.1337955435285343 29.115639940141183 0 0 0
7073 48 1 1.581461688741652 24.39401057346979 30.72888910187889 1 0 0
7467 61 1 14.338303001952553 3.135412276711344 35.241107652011756 0 0 0
7238 58 1 7.331436527668025 0.7091472683025729 31.312874800045655 0 0 0
7239 58 1 7.744637541973848 0.28751436234523364 32.652086122319474 0 0 0
7240 58 1 9.03129137740361 0.8728984916475138 33.243487737158986 0 0 0
7241 58 1 9.350547942481434 0.4948729385196017 34.73073687451411 0 0 0
9507 63 1 13.986739845957185 25.30528147674435 35.117144445509695 0 0 0
7975 33 1 4.426783351001418 7.578453239867488 22.217160095775697 0 0 0
9505 63 1 12.35438345969306 25.0783379998175 33.31200660522845 0 0 0
2812 49 1 17.79437268961966 3.236269787814721 16.562453499155705 0 0 1
8444 35 1 2.4299761540084077 13.737517197949678 26.89953748227959 0 0 0
7454 61 1 4.497994653799767 2.726565281798689 21.948726418688647 0 0 0
7455 61 1 5.2989955383688185 3.6592378014901104 22.895990876153647 0 0 0
7456 61 1 6.060548672986743 2.8764859036594235 23.946861385748132 0 0 0
7457 61 1 6.776006299088445 3.743062058858761 24.936430161269925 0 0 0
7458 61 1 7.443828942183965 2.7826077333657793 25.978285433988546 0 0 0
7459 61 1 8.28677761099333 3.567046221998305 26.91482713617527 0 0 0
7460 61 1 8.643918451455036 2.6447798716789745 28.061151926859196 0 0 0
7461 61 1 9.57377425728153 3.3572581070738594 28.995131412843435 0 0 0
7462 61 1 10.340926381551588 2.6707942923131216 30.09772466830072 0 0 0
7463 61 1 11.182965224914602 3.515413573108081 31.06755756325395 0 0 0
7464 61 1 11.971057560006146 2.7121365195670277 32.151618811374696 0 0 0
7465 61 1 12.64978362920522 3.449325351683415 33.33317190783251 0 0 0
7466 61 1 13.62515757323474 2.548094210018472 34.04053955669971 0 0 0
8828 58 1 3.733427911255932 18.989768704498022 27.195356282518745 0 0 0
6306 64 1 0.854027157074289 16.506279767783543 29.78235500553256 1 0 0
9042 17 1 4.220993673117966 20.441867413660116 22.23901252311837 1 0 0
8835 58 1 8.76725428754418 18.065952440160327 34.66342067546526 0 0 0
8059 54 1 8.497518248420258 9.076914247922279 34.87619078002456 0 0 0
9038 14 1 1.0370098702695405 20.557733089876056 18.24342681122168 1 0 1
8834 58 1 8.281687810079557 18.892987633155848 33.4546742474742 0 0 0
8613 12 1 11.09023867407499 16.649001820912293 31.766019419266385 0 0 0
9046 17 1 7.423184278690821 20.222916810768556 26.139424105300716 0 0 0
9493 63 1 3.6300741159670387 25.73030509562146 20.9876652167021 1 0 0
14 2 1 17.731818213963702 0.04295645934143325 34.07933433326499 0 0 0
7687 6 1 7.933089820267801 4.674330569346089 32.409830696551985 0 0 0
7688 6 1 8.177352092006549 5.230076238672743 33.80729394684189 0 0 0
782 6 1 18.10406328451767 9.05760351006024 33.96627764316287 0 0 0
7074 48 1 2.255836314749949 25.263589067063094 31.736606399346485 1 0 0
315 53 1 16.59423767407491 3.2696739503047554 27.17049410998594 0 0 0
9504 63 1 12.151731388008121 24.676142417255583 31.865859265987776 0 0 0
8448 35 1 5.515313062876914 13.688766173141449 30.868079204832732 0 0 0
9053 17 1 12.70954012370418 20.961667365271072 33.299086876328616 0 0 0
220 2 1 3.7569029196552113 0.5104396204839554 16.084900140745255 0 0 0
4760 10 1 13.933698246944688 22.841651312863817 17.629577475561923 0 0 1
305 53 1 9.202374380622109 3.4622717796866285 16.717932023511494 0 0 0
7977 33 1 5.871392195763962 7.435558723196368 24.21607820341848 0 0 0
7978 33 1 6.177043870438088 7.970483795222724 25.59157463078165 0 0 0
7979 33 1 7.398368432557763 7.368639188237741 26.326962853668306 0 0 0