LAMMPS data file via write_data, version 23 Jun 2022, timestep = 11112117

8487 atoms
2 atom types
8471 bonds
3 bond types
8455 angles
3 angle types
8439 dihedrals
3 dihedral types

0 36.89775039 xlo xhi
0 26.67072 ylo yhi
21.50710027202473 215.24450412792046 zlo zhi
0 6.095400567194667 0 xy xz yz

Masses

1 14
2 15

Pair Coeffs # lj/cut/omp

1 0.0914 3.95
2 0.1947 3.75

Bond Coeffs # harmonic/omp

1 449.5 1.53
2 449.5 1.53
3 449.5 1.53

Angle Coeffs # harmonic/omp

1 62.0967 114
2 62.0967 114
3 62.0967 114

Dihedral Coeffs # opls/omp

1 1.411 -0.271 3.145 0
2 1.411 -0.271 3.145 0
3 1.411 -0.271 3.145 0

Atoms # molecular

553 6 1 9.077566474838966 10.089234869432333 25.659387340503187 0 0 1
557 6 1 11.840857481683301 9.92921727366637 29.8719668347832 0 0 1
3191 3 1 13.515331277668611 16.57537154795094 23.984707435211426 0 0 0
840 27 1 13.043909583522478 14.16283488280226 32.585151181310266 0 0 0
1635 16 1 9.16372405934049 22.95584728657861 25.67272507449458 0 0 1
256 20 1 14.216572700159137 6.063734874636214 33.3111203789726 0 0 1
1594 38 1 8.642142067558288 21.43391402139636 32.98080150109596 1 0 1
8 2 1 3.1564548794623137 2.7413344482961457 24.2467127776818 0 0 0
2965 32 1 16.081367957985243 13.973384489583509 22.78199576789933 0 0 0
1282 14 1 18.33623711465909 18.037063551614125 39.62988265696225 0 0 0
833 27 1 8.938976529916868 14.928869194550728 24.72828271273274 0 0 0
6810 57 1 0.4124709711991938 5.707391140294906 27.175203740927643 0 0 0
3190 3 1 12.062938736269246 16.694188073093343 23.519906355465647 0 0 0
1591 38 1 7.16214061951457 21.30395377119234 29.390766123340466 1 0 1
3648 35 1 15.573206085857635 20.324033224538383 29.18898731260191 0 0 0
1641 16 1 13.63205595331983 22.624295540737773 32.124515845830565 0 0 1
2153 21 1 15.811636779835771 3.3303134481233627 29.580690011943467 0 0 0
1491 14 1 7.613910939797575 18.59747915666354 23.469287903280513 0 0 0
549 6 1 6.129504513318892 9.6475935812948 21.575133832879064 1 0 1
305 5 1 5.021559858321806 8.120962051200046 27.114861772120143 0 0 0
2149 21 1 13.003633770443932 3.4595382211718926 25.199765753226522 0 0 0
1637 16 1 10.453248219289383 22.88486143665962 27.966857138398854 0 0 1
302 5 1 3.197131735197221 7.481482880657283 23.658788132105407 0 0 0
1599 38 1 13.262669893734595 21.140638715884332 37.490359043359774 1 0 1
4098 37 1 11.763064243254671 25.85332146643499 22.85567127981298 0 0 0
2950 28 1 12.484924249570405 11.469554309055363 24.832009583000453 0 0 1
5351 23 1 17.872674703063087 0.5207693197633847 38.54898514415847 0 0 0
2566 24 1 15.599376858754564 5.455835064215732 22.154967434119904 0 0 1
8275 64 1 1.1593435652985893 0.8354925564571467 28.835989693873515 0 1 0
2968 32 1 18.55083073458153 14.522957081610773 25.678828334257165 0 0 0
1587 38 1 4.170139336794613 21.625445614476618 25.383662288548294 1 0 1
2568 24 1 17.137588081372634 5.522300052396132 24.109444159837068 0 0 1
7297 54 1 3.8259400392644767 12.752605696588663 38.88599867436892 0 0 0
16 2 1 9.348131286487938 2.8505024861777675 32.30836956332149 0 0 0
1259 13 1 13.402115474165603 17.002907827379317 37.95175293783811 0 0 1
550 6 1 6.260935738930218 10.395763149646534 22.89198080276797 0 0 1
848 27 1 18.985087207318482 14.390753191581236 40.85091922027644 0 0 0
7063 49 1 6.391696313900373 9.820655085453934 34.902632869327405 0 0 0
1595 38 1 9.991214615004125 21.284284833656905 33.62562917478091 1 0 1
599 51 1 3.9833687782509855 12.700505704304565 24.778063644030425 0 0 0
3642 35 1 11.453728551278012 20.909903899933436 22.92023926719945 0 0 0
3532 23 1 9.514956584065832 1.4312637182669294 27.245833910449974 0 1 0
834 27 1 9.064388278746256 14.361402806597441 26.09888896468498 0 0 0
594 30 1 15.190515927329123 10.299306756012495 35.483050409106404 0 0 0
3646 35 1 14.069499453780221 20.27733975811755 27.104498954603198 0 0 0
1244 13 1 2.1776633518261335 17.070111550935277 23.03166050452306 1 0 1
832 27 1 7.68374013899437 14.441826693981977 23.96414068254833 0 0 0
1678 21 1 17.256867592101436 23.464546104679485 37.0266571778282 0 0 0
8050 61 1 1.8550435533480283 26.489902368053688 36.15357284035248 1 0 0
307 5 1 6.576868818837371 8.136810225785839 29.102529815138386 0 0 0
308 5 1 7.786513598253175 7.419551539020966 29.798125544182536 0 0 0
309 5 1 8.043157266446947 8.088302658417133 31.129909485789174 0 0 0
310 5 1 9.220615576921436 7.502255394553537 31.943520769102076 0 0 0
2966 32 1 17.06983893285986 14.689732307199906 23.675165757109667 0 0 0
303 5 1 3.45386243154799 8.206200343703465 24.996541914607718 0 0 0
6813 57 1 3.1708371118239387 5.81775712765879 29.959876389699545 0 0 0
7764 59 1 0.8775061584489605 21.885846070638998 34.52019014008944 0 0 0
4189 17 1 17.38420668669887 0.9270954246075476 25.816619538904476 0 1 0
7535 58 1 8.99998543858718 14.360797096292657 39.00813622466606 0 0 0
250 20 1 9.8841322740484 6.087212919175849 27.058090209942083 1 0 1
2612 25 1 15.928245903363583 8.162952829323862 29.714312542519732 0 0 0
7056 49 1 0.8640124950021097 10.228898909014605 27.986869013884196 0 0 0
1250 13 1 6.4079648445182595 17.025461100810496 29.079461080368496 1 0 1
3870 10 1 17.119979638696343 22.889843592430786 24.146309949247335 0 0 0
2952 28 1 14.065797390609891 11.41529997283414 26.82686834106273 0 0 1
1640 16 1 12.8776759377113 23.514177944581142 31.13260755896028 0 0 1
245 20 1 5.948223979464317 5.390018125695244 21.961148241059558 1 0 1
3192 3 1 13.484858735548938 16.193652699418497 25.478152196820666 0 0 0
1677 21 1 16.602497846156496 22.606062280636372 35.96843166041144 0 0 0
1638 16 1 11.332130687053178 23.66134683774304 29.004656498307384 0 0 1
835 27 1 10.37642291659985 14.594304341455553 26.857405439834476 0 0 0
1490 14 1 6.23878338840744 18.9517624295397 22.862365628505497 0 0 0
842 27 1 14.379300221305504 14.732148598036229 34.65230557587991 0 0 0
1935 23 1 6.53486714460695 0.9452110581301717 21.72645984020795 0 1 0
830 27 1 6.178939372346235 14.326331034555713 21.848101574188934 0 0 0
1680 21 1 18.66281621769567 23.456674891313767 39.26011550024919 0 0 0
1642 16 1 14.12152022121144 23.383392279262637 33.34791146417994 0 0 1
8029 11 1 7.1893127457991834 23.654231414524954 37.380628003627564 1 0 1
6832 55 1 0.4546577637118465 8.622574044824159 34.00227098315707 1 0 0
3196 3 1 15.883639528338463 16.326215843249162 29.921785565732833 0 0 0
1280 14 1 16.94312224670955 18.433750380760227 37.483148011094556 0 0 0
914 23 1 16.719031211033073 0.8539844428501113 37.60552618982372 0 0 0
2951 28 1 13.594004710551618 12.198588527020906 25.60481800519944 0 0 1
6834 55 1 1.9427355647697224 8.749363655345988 36.09679733389036 1 0 0
7647 9 1 2.6893351548681697 18.404942851939552 30.794545798464483 1 0 1
600 51 1 4.201834537751075 11.895906753514398 26.006238146128908 0 0 0
601 51 1 5.328524145404009 12.410508485238841 26.8455837695076 0 0 0
602 51 1 5.5770541795781226 11.757482493613606 28.21740647324723 0 0 0
603 51 1 6.690354005707342 12.463235086140823 29.033846501204643 0 0 0
604 51 1 7.215382274398918 11.74839513747326 30.290961511737237 0 0 0
605 51 1 7.987448536077775 12.677216023257524 31.225838336029035 0 0 0
4102 37 1 14.515091713870325 25.760895387748107 27.156849019015677 0 0 0
7646 9 1 2.344142590831535 19.160292106386176 29.49883911012861 1 0 1
1254 13 1 9.15338529720973 17.307093026858897 33.282984351835665 1 0 1
3647 35 1 15.325923396421352 19.721963848488535 27.803392155342497 0 0 0
1248 13 1 5.045754471104343 16.746286683358818 26.984354677964163 1 0 1
301 5 1 1.9845789212359284 8.092381095806955 22.87365497161245 0 0 0
8281 64 1 6.28304178406995 0.780460795515113 34.57905039803615 0 1 0
1593 38 1 8.589496261135348 21.222871062249094 31.46255283071964 1 0 1
3645 35 1 14.124391627642217 20.019950350638407 25.629770536672947 0 0 0
3869 10 1 16.13300904148127 23.679486193914048 23.291591852576037 0 0 0
7644 9 1 0.5241714798515161 19.2368263160603 27.648056139339694 1 0 1
1691 18 1 8.793271791403123 25.05327423070656 32.397712206107 0 0 0
2650 26 1 14.298974320534525 7.694585681584166 27.642459889385247 0 0 1
253 20 1 11.946516562544868 5.383716469579333 30.144956360025255 0 0 1
7685 61 1 8.548263875311113 18.726179290996164 39.05478863993632 0 0 0
2949 28 1 11.923825153786709 12.270123293476903 23.669545317203436 0 0 1
7059 49 1 3.270983903723047 9.799609465827167 30.82750664370986 0 0 0
1699 18 1 14.93413903858329 25.224411827305758 40.62229262170533 0 0 0
7572 19 1 1.312134036858303 17.3759550345703 34.79189201681524 1 0 0
3198 3 1 17.416162395391563 16.097016657877905 32.06980364936304 0 0 0
7058 49 1 2.0857148576027744 10.339955204697137 30.0593021577676 0 0 0
844 27 1 16.02960145666114 14.761202094568747 36.7042866711206 0 0 0
304 5 1 4.663391554849502 7.57102645410482 25.739953158958553 0 0 0
1269 14 1 9.070173714882502 18.763046409978116 25.633205581305184 0 0 0
8031 11 1 8.77943695840193 23.220964135389888 39.249769485454564 1 0 1
1585 38 1 2.7868398621099537 21.45254867552603 23.45169751084925 1 0 1
4104 37 1 15.609491579435673 25.59120916700818 29.39084937891561 0 0 0
560 30 1 17.83834962517721 9.774348253105595 38.24963465410815 0 0 0
6839 55 1 6.032402515038304 7.85460929655499 40.70365731438872 0 0 0
2577 25 1 17.597949020531136 8.339675286545388 31.804175880521584 0 0 0
4099 37 1 12.320420251573553 24.963392004304364 23.969215179403747 0 0 0
3194 3 1 14.673860093546883 15.921164517566776 27.691369498282576 0 0 0
3957 23 1 13.772055918449208 1.2078977098007877 32.0020605677402 0 1 0
2156 21 1 18.280971875499304 2.6758079932123158 32.47261415348235 0 0 0
2611 25 1 15.518084814952168 7.290241022739417 28.5160718744791 0 0 0
7678 61 1 3.7759896629224396 19.23618741149626 31.510010811280466 1 0 0
2948 28 1 10.768862402338309 11.593418827231698 22.799712144195624 0 0 1
1246 13 1 3.49230744599341 16.855815634451442 24.969279331247666 1 0 1
7768 59 1 3.9373085277248183 22.08565915867378 38.667717134490786 0 0 0
2648 26 1 13.165449085899205 7.894230690219471 25.416168997598678 0 0 1
836 27 1 10.337226019697175 14.003725806131243 28.283782922261956 0 0 0
15 2 1 8.4370986348402 3.6923299275003654 31.456319535193394 0 0 0
7573 19 1 1.7643572024347514 16.573830141029067 35.951133407611536 1 0 0
249 20 1 9.095897118218078 5.18545948200346 26.08948911824468 1 0 1
6526 52 1 5.876016528565619 3.0691258482823964 40.690693647616214 1 0 1
6814 57 1 3.200541866650372 5.625270437231395 31.495917297914573 0 0 0
598 51 1 2.6449301838032357 12.252127875531793 24.151125753681217 0 0 0
1251 13 1 7.614275917335639 16.367501476341292 29.850704756420647 1 0 1
1683 18 1 3.3286309955768076 25.251000954721494 23.901174526049722 0 0 0
3644 35 1 12.756229099916013 20.438504454290353 24.96443368512214 0 0 0
4097 37 1 10.905594095910445 24.991709679461042 21.889850716590498 0 0 0
7148 23 1 10.898756039971312 1.3392381523494745 27.85737112353538 0 1 0
254 20 1 12.638888207773487 6.191640533055565 31.30999734004599 0 0 1
7765 59 1 1.7348913249173177 21.15863296813393 35.59761709117413 0 0 0
258 20 1 15.614418440230896 5.938990358749968 35.35868112330864 0 0 1
2649 26 1 14.182940765297381 7.074704272050849 26.248113224965046 0 0 1
1270 14 1 9.113564776166362 18.986042838472112 27.167098325506306 0 0 0
1271 14 1 10.459373904930857 18.856137120468798 27.830388706962204 0 0 0
1272 14 1 10.502820831017093 18.899064788743196 29.35109437612345 0 0 0
1273 14 1 11.82164720065711 18.55391495398905 30.00996935096139 0 0 0
1274 14 1 12.020858863420035 18.685949430362793 31.540474052249472 0 0 0
1275 14 1 13.481484863841208 18.542485545484126 31.91417580996757 0 0 0
1276 14 1 13.810085289645166 18.659825362116194 33.422492851661694 0 0 0
1277 14 1 15.299004140152787 18.447913181320505 33.87687428343115 0 0 0
257 20 1 14.9071166879704 5.158882126576967 34.271982038700095 0 0 1
7068 49 1 10.300029532658451 10.375025381418865 40.00312693322884 0 0 0
2578 25 1 18.355235755794794 7.499154122645337 32.87988598708543 0 0 0
7769 59 1 4.9946812530667755 21.33939807625848 39.43960588076055 0 0 0
7684 61 1 8.049133140408506 19.620352113922063 37.954347048519466 0 0 0
1247 13 1 4.6150281907670125 16.176111394450636 25.656639466105588 1 0 1
7061 49 1 4.884810981961607 9.74661496373071 32.786564960187135 0 0 0
7574 19 1 2.7204660677682915 17.332363062843953 36.9208704405811 1 0 0
8023 11 1 2.8802566184164076 23.12775679248885 31.071427966785908 1 0 1
839 27 1 13.121643369442715 14.120571753836403 31.043024897414675 0 0 0
2956 29 1 16.920170219298672 11.8816809483137 31.0808299964392 0 0 0
820 51 1 1.4682793154938436 12.084392966217212 21.8055732460961 0 0 0
6816 57 1 4.725568687865314 5.640998769225718 33.54405519527896 0 0 0
7681 61 1 5.553097154955654 19.013130698794225 35.02697971470797 1 0 0
1589 38 1 5.596981690583869 21.678569932382295 27.49185581014604 1 0 1
838 27 1 11.812850284211748 13.860225917297731 30.361297490740817 0 0 0
9 2 1 3.972183313897997 3.7111744295247764 25.091386897142083 0 0 0
1596 38 1 10.140543062772082 21.397572406540583 35.13844161024138 1 0 1
1695 18 1 12.346545328292681 25.363628957404515 36.15856780713138 0 0 0
1631 16 1 6.05774702436638 22.888060101556114 21.767015682909523 1 0 1
2647 26 1 12.538516359443516 7.068874455915143 24.187128529033863 0 0 1
2147 21 1 11.283414835890447 3.445652026140234 23.167208128892092 0 0 0
1590 38 1 5.695242614674562 21.50156277725966 28.995674220977342 1 0 1
6 2 1 1.5146927729079644 2.9192632920080674 22.2478030402196 0 0 0
8024 11 1 4.044614581063047 23.82849233123131 31.818534609980286 1 0 1
1690 18 1 8.14151104127261 25.840991214684728 31.350839970775002 0 0 0
2151 21 1 14.418366000927124 3.4290281488911556 27.461994797759942 0 0 0
7532 58 1 6.492034213647917 15.2876776931669 36.16532392273721 1 0 0
22 2 1 13.765438116463308 3.0088567463117255 38.46666801747623 0 0 0
3643 35 1 12.875591633331858 20.5419967776059 23.420823616309445 0 0 0
1249 13 1 6.108625803689078 16.101822889787492 27.893343748226684 1 0 1
5857 49 1 0.9154241063611614 23.886033664660857 40.28038534232218 1 0 0
551 6 1 7.524272641658241 9.909339454227052 23.562608850525542 0 0 1
3189 3 1 11.913154224112647 16.488457134088307 22.04854610189618 0 0 0
4106 37 1 17.25770724655767 25.43679272532486 31.42841652133357 0 0 0
3491 23 1 15.394980481542134 1.301123642745114 35.52640164711989 0 1 0
1679 21 1 18.0773799449983 22.601475738523817 38.04218233405953 0 0 0
837 27 1 11.516781856532731 14.57820796643323 29.04326286323287 0 0 0
8022 11 1 2.6367048482976294 23.616495570380234 29.632842187924503 1 0 1
6833 55 1 1.6927556402338881 8.172145846024481 34.69564238663139 1 0 0
2725 12 1 17.506748366365358 9.52733258746836 25.90747237155762 0 0 1
2493 23 1 10.947240143439615 1.0462716112782768 29.394958940347376 0 1 0
7493 29 1 0.37233776568500476 14.03664792593348 26.682939804431832 1 0 1
8020 11 1 1.0922518168062467 23.413173821025193 27.60449978899595 1 0 1
592 30 1 13.825265122861758 10.502769650241504 33.38397074594472 0 0 0
1257 13 1 11.75851906021775 16.947459596575563 36.10527029246075 1 0 1
6523 52 1 3.0653135679395502 3.693474269273189 38.02747665335983 1 0 1
6745 52 1 1.8762185733926522 4.071910093451225 35.66394441440704 1 0 1
946 23 1 8.092173471239416 1.3468174194251739 25.256198274761335 0 1 0
4188 17 1 17.341119350612875 0.6638228739482802 24.298378732726434 0 1 0
3649 35 1 16.94978689286605 20.08274273531049 29.80626849696837 0 0 0
7575 19 1 3.120107814160428 16.462557806521417 38.12076785138465 1 0 0
1245 13 1 2.923661733433649 16.059958141094306 23.806715082697664 1 0 1
1684 18 1 4.050501681911973 26.101707440006262 24.962364960196012 0 0 0
1685 18 1 5.143961662938704 25.46213635139525 25.72842800150911 0 0 0
1686 18 1 5.157726317403366 25.902183357811822 27.21672862636007 0 0 0
2155 21 1 17.069768308987893 3.308709409403127 31.680289069904894 0 0 0
7055 49 1 0.5637480046923002 9.493847881201622 26.71463186802157 1 0 0
2958 29 1 18.212300778848242 12.098125049451594 33.276484344990486 0 0 0
1694 18 1 11.278375592602282 26.060273493046687 35.34154293177369 0 0 0
1633 16 1 7.8057200461852405 22.89920749968078 23.627355169012727 1 0 1
311 5 1 9.372220159846496 8.136573084905274 33.27880863894927 0 0 0
294 3 1 18.407102233314326 5.863530007216715 39.62359061288408 0 0 0
4187 17 1 16.092347272090212 1.3018560641881798 23.720763006978537 0 1 0
6838 55 1 4.605962173461207 8.169870537365503 40.27013422509775 0 0 0
8282 64 1 7.271879292000214 1.543312011458084 35.512042998728155 0 1 0
3193 3 1 14.782480616947653 16.029622121109938 26.175657213140674 0 0 0
8054 61 1 4.530537370582322 26.102665161986675 40.353816619245954 1 0 0
8030 11 1 8.724399380350771 23.504380328316675 37.72288311574789 1 0 1
7680 61 1 5.174568584112515 19.579112907294046 33.63730261579923 1 0 0
3195 3 1 15.946334759460333 15.695022723108172 28.518869269952177 0 0 0
259 20 1 16.389855861001386 5.127940857580259 36.345843632914274 0 0 1
7296 54 1 3.5450022600656776 12.571549552655402 37.40639871036221 0 0 0
2150 21 1 13.850475242241577 2.663673105593638 26.268996364980993 0 0 0
595 30 1 16.389746926290417 9.695754603231 36.2460535454687 0 0 0
6524 52 1 4.350410936547036 3.082091055733866 38.664126211137805 1 0 1
1639 16 1 11.872166250825448 22.862933418835 30.21938654326396 0 0 1
596 30 1 16.681433488786492 10.446232032454088 37.46883767261318 0 0 0
7494 29 1 1.0309926692594296 14.917765524769486 27.75849352945108 1 0 1
6815 57 1 4.653267667206353 5.731969638117922 32.02684411388785 0 0 0
1693 18 1 10.526252199030749 25.21190588721711 34.30653394037151 0 0 0
843 27 1 15.830205904971036 14.552765136728896 35.19256123880617 0 0 0
2154 21 1 16.75414790588974 2.5109642421960503 30.427501759973303 0 0 0
1598 38 1 11.784178228453078 21.183118872716133 37.002646305545355 1 0 1
1586 38 1 3.091207169110844 20.78314873312179 24.762226675655853 1 0 1
1492 14 1 7.661832126754378 18.922223415069496 24.97382505214527 0 0 0
21 2 1 12.684596480220927 3.7678232355376378 37.76367331168822 0 0 0
261 20 1 17.944188042435776 5.051052412072784 38.47092469015356 0 0 1
2721 12 1 14.615820308047402 9.57154284689114 21.772207439845072 0 0 1
7907 57 1 9.30831498712422 5.349327452012013 39.76314681565431 0 0 0
593 30 1 14.599425005932641 9.518850906297835 34.27548234273575 0 0 0
248 20 1 8.457996609379153 5.946804776469082 24.877710334168526 1 0 1
7576 19 1 4.323486552647283 17.123160246283653 38.82260029944152 1 0 0
4186 17 1 15.955511123110265 0.9609161094117361 22.21895566161495 0 1 0
8026 11 1 5.307262035789907 23.85954079101633 34.001170875834326 1 0 1
6603 23 1 9.51434329514419 1.6008858954616971 25.741758850631676 0 1 0
247 20 1 7.521218743702682 5.175813654422207 23.952952995773675 1 0 1
556 6 1 10.486829366273371 10.274294968653518 29.338445461299195 0 0 1
1682 18 1 2.2462171375487925 25.99399811774477 23.076058354806953 0 0 0
8025 11 1 3.9913134290603343 23.609112644362842 33.337122674198916 1 0 1
8087 23 1 15.179893555109432 1.013725514044398 34.01926010943505 0 1 0
1692 18 1 9.544836836385905 25.824581300406006 33.360244936993304 0 0 0
7533 58 1 7.3848351482306605 14.502600534249586 37.19880873426541 1 0 0
3545 23 1 17.97247320792269 0.9868806974393893 39.99353699378454 0 0 0
260 20 1 17.14228562563231 5.865135975453761 37.462161628637105 0 0 1
7057 49 1 2.035352870591163 9.607543858871725 28.690903368091593 0 0 0
2567 24 1 16.02388656521557 4.727027145791578 23.42284909188252 0 0 1
2957 29 1 18.0005493499795 12.584941918014563 31.866027792997674 0 0 0
1636 16 1 9.882677490836272 23.723827987053493 26.780266435829496 0 0 1
1261 13 1 14.899186941654488 16.89528210115062 40.09284518323021 0 0 1
606 51 1 8.54057231125954 12.046017077072161 32.47486686092125 0 0 0
608 51 1 10.137311604530382 12.187460858210487 34.55468585722091 0 0 0
1697 18 1 13.595032311086754 25.21451610879818 38.35593940294173 0 0 0
8286 64 1 9.725614343563393 1.5042941165413748 40.00483530698806 0 1 0
5580 41 1 0.8023084658838029 19.614266479378927 40.29653659570805 0 0 0
1698 18 1 13.820399171305002 25.844578915092747 39.7528990621103 0 0 0
139 23 1 13.924447473990721 1.5784999604873573 33.39253580091347 0 1 0
1601 38 1 14.816911717359382 20.857038207268573 39.440312357430585 1 0 1
607 51 1 9.243289079491413 12.902061189057612 33.51638951290863 0 0 0
7496 29 1 2.2227487020466357 14.882161566969616 29.959661643892566 1 0 1
3652 35 1 18.60580455932994 20.84272551691907 33.23081002847199 0 0 0
5396 23 1 7.983290084431833 1.4518251730444653 23.751334105767143 0 1 0
4100 37 1 13.105829626647882 25.858174688097108 24.908215249912004 0 0 0
8052 61 1 2.98047579134177 26.184919319407218 38.42607361218546 1 0 0
1687 18 1 6.266556902169067 25.24826864358017 28.021302594850525 0 0 0
318 5 1 14.716534174869203 7.629858651676142 40.38333499815987 0 0 0
7682 61 1 6.561392835675442 19.73605092272791 35.83681939407435 0 0 0
3626 36 1 16.687366238407805 19.220660348238155 23.20471098517702 0 0 1
1258 13 1 12.036629902064892 17.47471563694673 37.502095658876925 0 0 1
7767 59 1 3.3843430186089627 21.300175898087776 37.47920887844782 0 0 0
6525 52 1 4.835642932873923 3.8598058710338243 39.943757378574965 1 0 1
8028 11 1 6.880024835198352 23.771802453511114 35.89684137718023 1 0 1
1260 13 1 13.480642799031953 16.902832261753503 39.45773393861627 0 0 1
7763 59 1 0.48993688403307106 20.936759248307826 33.402516178703976 0 0 0
8274 64 1 0.8668984396077105 1.6823907571693395 27.559128103473963 1 1 0
10 2 1 4.440999103663761 3.0169233609681614 26.378848583969393 0 0 0
2722 12 1 16.01710721145267 9.611579958576467 22.289505708396334 0 0 1
1592 38 1 7.170509433457109 21.02251310174815 30.89927088586913 1 0 1
1252 13 1 7.860211609664832 17.025375090725724 31.14359646018238 1 0 1
4107 37 1 18.008041790246654 24.48671650741502 32.34343573627543 0 0 0
5762 23 1 12.396922408994696 1.429906242382843 31.36970730112372 0 1 0
1600 38 1 13.427758903242154 20.662623303689088 38.93398761884794 1 0 1
6818 57 1 6.302075026957626 5.313276370999383 35.5917866883991 0 0 0
552 6 1 7.87511583975275 10.654018657208141 24.84730203614442 0 0 1
555 6 1 10.396703303378501 9.970336853244673 27.799074306319035 0 0 1
8277 64 1 2.97522045656902 0.6273488496688076 30.736704907689862 0 1 0
13 2 1 6.539083672109777 3.6981037391629417 29.5263898086728 0 0 0
7499 29 1 4.389028183758918 14.199794999140128 33.013681186884384 1 0 1
7062 49 1 5.530084659427643 10.571069075963052 33.897624540046365 0 0 0
1688 18 1 6.724711608709651 25.946396892688746 29.26349360431853 0 0 0
20 2 1 12.240519026524538 2.9444852549646336 36.58564653600022 0 0 0
8051 61 1 2.6461932409316273 25.580637265530303 37.13007229666654 1 0 0
612 51 1 13.37470899218091 12.41176666689281 38.35955080137599 0 0 0
12 2 1 5.910561100577692 2.8727439833411617 28.44885556750838 0 0 0
1597 38 1 11.648751767797613 21.266424093037138 35.47204012219276 1 0 1
11 2 1 5.353794404372064 3.853434826822756 27.358603849666743 0 0 0
7683 61 1 7.087457264227844 18.869293343259923 36.97858907497021 0 0 0
7495 29 1 1.7076223523724259 14.024653741516191 28.826879427668693 1 0 1
7534 58 1 8.236335737637368 15.402257265521866 38.18112209361212 0 0 0
2724 12 1 17.47424262865334 9.36809882892459 24.418832097050313 0 0 1
2646 26 1 11.687194750136761 7.910102145041498 23.29054559562243 0 0 1
597 51 1 2.6604519046561412 12.557129298855953 22.64068078841756 0 0 0
6837 55 1 4.482678975014522 8.049064906672305 38.78003161676447 0 0 0
2502 57 1 10.683338118470257 5.618533206773325 40.39967704999488 0 0 0
2954 28 1 15.800835158400313 11.453791367185797 28.81049045267142 0 0 1
251 20 1 10.492199533680937 5.368973386538655 28.209993435907496 1 0 1
7679 61 1 4.273310135909117 18.619136083402427 32.820579089010884 1 0 0
1643 16 1 15.041033542708059 22.60344590701843 34.16610794932681 0 0 1
252 20 1 11.249330971508053 6.254060981602046 29.191887894835816 0 0 1
314 5 1 11.89830327438598 7.540725399588235 36.35392435281435 0 0 0
7294 54 1 1.770235259426499 12.467419965815267 35.4819506601642 0 0 0
8279 64 1 4.588303640743922 0.7568754652371302 32.73888397230214 0 1 0
1253 13 1 8.976421689508355 16.518323382669777 32.000893868107354 1 0 1
8285 64 1 8.956405236774664 0.7092851677458315 38.96736018671328 0 1 0
2947 28 1 10.200683108343755 12.448370859985474 21.663075475849297 0 0 1
8027 11 1 5.419370967392213 23.858214452406777 35.482186593457506 1 0 1
19 2 1 11.446789135727448 3.69739331742793 35.49274456963681 0 0 0
6811 57 1 1.7520593145696295 5.742786260403767 27.98824028950866 0 0 0
7686 61 1 9.7408837997583 19.323857912062014 39.765219087432044 0 0 0
7 2 1 2.820534103723052 3.4830901810324884 22.89257790685622 0 0 0
7645 9 1 1.1037580109268865 18.495857505930235 28.824747673104707 1 0 1
7066 49 1 8.571980016339586 10.451802623193524 38.150012642109104 0 0 0
312 5 1 10.576812639880998 7.657017831853826 34.06370556254282 0 0 0
7766 59 1 2.3012556823866372 22.044867795427713 36.70607080051006 0 0 0
2953 28 1 15.0771665498143 12.235464688205164 27.726751604076178 0 0 1
1936 23 1 6.593708533617939 1.4714562038960828 23.105294814355737 0 1 0
1278 14 1 15.509516498396614 18.668112794621454 35.37756419434121 0 0 0
255 20 1 13.665264851558527 5.376688387786501 32.038459714676044 0 0 1
7067 49 1 9.173624317203988 9.636288009792048 39.264762883360646 0 0 0
7497 29 1 3.16337660378079 14.173789592982525 30.909852902474185 1 0 1
7530 58 1 4.89022365009939 15.110540953730158 34.121116634515296 1 0 0
2967 32 1 17.788821432056306 13.75861294856788 24.658828840873994 0 0 0
846 27 1 17.441856159245617 14.382660596751153 38.761231643346285 0 0 0
6522 52 1 2.812155981562929 3.3051521558564363 36.559610140632515 1 0 1
8276 64 1 2.4846750626400333 1.3233385582414408 29.49826012017987 0 1 0
8278 64 1 4.109182907517438 1.364369097984422 31.402642935012825 0 1 0
7577 19 1 4.483529140098421 16.621894961657745 40.27476939235173 0 0 0
7531 58 1 5.583679731511663 14.410790961685228 35.309555999765614 1 0 0
315 5 1 12.307537013161548 8.47417815090855 37.432938424342865 0 0 0
1689 18 1 7.434860044134391 25.015733018694995 30.306905268866334 0 0 0
18 2 1 10.824630881312519 2.9389514744770207 34.30858041747827 0 0 0
7298 54 1 5.247203292452416 12.514691435188725 39.452396049249884 0 0 0
558 6 1 12.203871552350622 10.477194521323687 31.291445936055812 0 0 1
831 27 1 7.432603371700563 14.921341219850945 22.53034030638026 0 0 0
613 51 1 13.889001319660236 13.049417628234453 39.67993031184409 0 0 0
2613 25 1 16.972299505732988 7.546474187296741 30.722989080656276 0 0 0
7536 58 1 9.778764254837725 14.962209058625849 40.177245584459044 0 0 0
3871 10 1 17.712785926360006 23.664991645566854 25.313476031046463 0 0 0
6835 55 1 3.222916912643035 8.377567223435285 36.752999456073184 1 0 0
1255 13 1 10.307615706187354 16.746088683775294 33.99992638046141 1 0 1
3650 35 1 17.12880621988031 20.69799214818081 31.154970406546823 0 0 0
313 5 1 10.791276637681406 8.20264947055443 35.497761895588425 0 0 0
554 6 1 9.125705211032711 10.475342277473482 27.088692410814936 0 0 1
317 5 1 13.930099847234183 8.52974868198736 39.46654636540062 0 0 0
559 6 1 13.417734100821919 9.838498178055271 32.05636502353787 0 0 1
841 27 1 14.379141614640758 14.617717845889986 33.12144814351984 0 0 0
2146 21 1 10.90806621520769 2.6992999179432884 21.933382382475223 0 0 0
246 20 1 6.907490299515978 6.121195111970655 22.89656292765344 1 0 1
7498 29 1 3.5839464131025935 15.063927258743679 32.07290424085336 1 0 1
4105 37 1 16.536976458467084 24.732801525021532 30.29865189625059 0 0 0
316 5 1 13.38892370408161 7.759891351076511 38.23732949440452 0 0 0
2148 21 1 12.547617909320534 2.7985642902533012 23.882425845532616 0 0 0
4873 57 1 9.259726979367315 5.411513817730676 38.19900418972202 0 0 0
1696 18 1 12.569799315435278 25.93138764479631 37.57113804256083 0 0 0
609 51 1 10.85019480306215 13.030668754574737 35.59129985777224 0 0 0
8283 64 1 7.9508876307789835 0.7274682707334816 36.63538376776555 0 1 0
3197 3 1 17.29445953286881 16.298826581771475 30.54571888733979 0 0 0
1676 21 1 15.83382459833442 23.502484889868292 35.088532784649146 0 0 0
2955 28 1 16.732027423766993 12.369492317514522 29.60861605206472 0 0 1
6817 57 1 6.167688134451795 5.425081647277188 34.09359328200928 0 0 0
7295 54 1 2.0350675441970396 12.743071002818455 36.97332066867037 0 0 0
7060 49 1 3.6055014295257735 10.36871540699273 32.20168995784043 0 0 0
1634 16 1 8.833945918760998 23.726682020019815 24.396208457028212 0 0 1
8284 64 1 8.597665511656688 1.5567345598199323 37.745467192133 0 1 0
6988 57 1 7.82472194808003 5.592628359106217 37.616737550107885 0 0 0
4101 37 1 13.674907810275402 25.024387482031685 26.067509780955735 0 0 0
4509 23 1 16.769168442083153 0.8159185006484886 36.107040754041876 0 0 0
845 27 1 17.400722383915433 14.593715771653564 37.24229859197756 0 0 0
1279 14 1 16.89518507010395 18.570332817690478 35.93674803606592 0 0 0
17 2 1 10.045550232500467 3.7559224012421137 33.28323451666506 0 0 0
4103 37 1 15.087465276739392 24.751050521761147 28.204708907973 0 0 0
3628 36 1 18.29190968183417 19.199362653676648 25.17296156055403 0 0 1
2152 21 1 15.191028541209603 2.576361347169968 28.391746589645 0 0 0
6819 57 1 7.724409837062781 5.220415334598666 36.154508801542356 0 0 0
610 51 1 11.967490941220225 12.28883268487641 36.30855971019183 0 0 0
306 5 1 6.205923233760233 7.3706832877492126 27.790987638070625 0 0 0
8280 64 1 5.657401584301634 1.6058287652197638 33.46613397389246 0 1 0
8053 61 1 4.176137407068708 25.537461689783086 39.005243337121044 1 0 0
847 27 1 18.860457268718356 14.457382192066135 39.355708695206715 0 0 0
611 51 1 12.448239581618784 13.181798011733388 37.45852760100151 0 0 0
1256 13 1 10.469389434085596 17.36999189809157 35.37982192913578 1 0 1
6744 52 1 1.2248347957748045 3.1693216721737927 34.60863033579582 1 0 1
23 2 1 14.035361370642523 3.612400808346948 39.87911775824179 0 0 0
8049 61 1 1.10770743392689 25.6954396641461 35.08300160960223 1 0 0
6812 57 1 1.7516552914804113 5.982764050706352 29.462213648978924 0 0 0
14 2 1 7.528732126676472 2.9293606283415823 30.41758387434527 0 0 0
2723 12 1 16.066640899647876 9.582532276047948 23.816791312451727 0 0 1
1588 38 1 4.244517585823504 21.248894928894586 26.888649767620667 1 0 1