LAMMPS data file via write_data, version 23 Jun 2022, timestep = 11112117

8487 atoms
2 atom types
8471 bonds
3 bond types
8455 angles
3 angle types
8439 dihedrals
3 dihedral types

0 36.89775039 xlo xhi
0 26.67072 ylo yhi
25.92195543370201 210.8296489662389 zlo zhi
0 5.8175986547001575 0 xy xz yz

Masses

1 14
2 15

Pair Coeffs # lj/cut/omp

1 0.0914 3.95
2 0.1947 3.75

Bond Coeffs # harmonic/omp

1 449.5 1.53
2 449.5 1.53
3 449.5 1.53

Angle Coeffs # harmonic/omp

1 62.0967 114
2 62.0967 114
3 62.0967 114

Dihedral Coeffs # opls/omp

1 1.411 -0.271 3.145 0
2 1.411 -0.271 3.145 0
3 1.411 -0.271 3.145 0

Atoms # molecular

1 2 1 6.805477316482731 2.7524649606020626 31.670062501231087 0 0 0
2 2 1 7.125034976946925 2.408014845865715 33.11079959629475 0 0 0
3 2 1 8.458762115086447 2.9030397747046264 33.58858911321314 0 0 0
4 2 1 8.717014317004807 2.198805481002883 34.946626555037454 0 0 0
5 2 1 9.85845642962622 2.879986227824923 35.74079588937853 0 0 0
6 2 1 9.917044404336469 2.179075500893543 37.0751481084685 0 0 0
7 2 1 11.052178388072983 2.6771824361776297 37.96918249240721 0 0 0
8 2 1 11.080523792231629 1.8663882031832315 39.22611975049699 0 0 0
564 30 1 17.566395886811865 9.23254306281883 39.49392442669694 0 0 0
8057 61 1 3.7637896317465804 25.06096346024616 40.5390799691741 0 0 0
1896 56 1 5.853520172166945 24.604315777404373 30.967157955913333 0 0 1
2652 27 1 17.071078686305416 9.359551858860572 26.78052007389859 0 0 0
295 3 1 14.570126412394877 3.937678432201966 36.82890369216605 0 0 0
1277 14 1 18.83055708924607 17.982597246006343 41.913248965489466 0 0 0
3629 36 1 18.438814837536217 18.542458053709467 29.094471137581028 0 0 1
6837 55 1 3.0724867311307955 6.80332480818641 39.87811333502132 0 0 0
8285 64 1 7.531788079797615 26.1366798867515 39.57358597952189 0 0 0
823 27 1 8.148760734859192 14.152660063154228 27.467162587527802 0 0 0
1677 21 1 6.667856723977313 22.31225038164953 26.949573571389255 0 0 0
1604 38 1 3.372055402530735 20.71870298472556 28.165160445748043 0 0 1
222 2 1 3.8921118415746454 2.270133300021669 29.167796264894292 0 0 0
223 2 1 5.219643602243907 2.598617255888768 29.67580623467976 0 0 0
224 2 1 5.484057818560269 2.22631242779228 31.142343577283476 0 0 0
3861 10 1 15.867948009617647 21.905528493128124 26.314309330909722 0 0 0
816 51 1 4.433435275118422 11.349775887390942 28.88982953273994 0 0 0
7824 59 1 4.12123142155952 22.69799898817651 35.21745224999027 1 0 0
2146 21 1 18.40026925161592 2.758358285829368 35.536188733759744 0 0 0
2142 21 1 15.497920096316214 2.8572826452619755 31.394151541344648 0 0 0
2612 25 1 13.250698994165745 6.775076386970859 28.574190134223475 0 0 0
2741 29 1 18.254371584255182 11.111408466196961 34.09742678479038 0 0 0
6536 53 1 2.370152592917817 2.8535982409634775 38.45118918571903 1 0 0
2611 25 1 12.781861198429738 7.6442517461967725 27.37749212368863 0 0 0
7289 54 1 0.6044131446287448 11.098582877725933 35.47627931991424 0 0 0
4175 17 1 16.427808191857913 0.743343579740629 27.20172805163293 0 1 0
259 20 1 11.653357625817316 4.459158258281616 32.80903295607006 0 0 1
4087 37 1 17.80388477208314 24.07775694792878 34.497076177879244 0 0 0
7535 58 1 2.21110272381229 14.263893824912444 32.79686515230668 0 0 0
1260 13 1 5.072454133553882 16.60566131879249 29.94408180535735 0 0 1
296 3 1 15.72989106705687 4.5255186078525735 37.597653412962046 0 0 0
297 3 1 15.883797038275809 3.9007397344872468 39.031379801154266 0 0 0
298 3 1 17.196794128830994 4.51320994971431 39.57953030836754 0 0 0
1499 18 1 15.69156252255144 20.244238889227198 44.28175935369806 0 0 0
4176 17 1 17.579064023337217 0.01954251205258093 27.829848440369688 0 1 0
6835 55 1 1.8086090078904822 6.395509542246017 37.65253684420141 1 0 0
302 5 1 3.35803201269949 7.508662655487857 27.795571554046084 0 0 0
303 5 1 4.291810130477509 6.856420986068693 28.738980304091935 0 0 0
304 5 1 4.927473679236208 7.801670672471701 29.826080167185683 0 0 0
305 5 1 5.863066440346546 6.898711008103642 30.667877458794727 0 0 0
306 5 1 6.731914335771541 7.62030887005577 31.743101840435436 0 0 0
307 5 1 7.516160351057453 6.747802696400234 32.7267060315286 0 0 0
308 5 1 8.33237720352195 7.576338533359708 33.69381909811687 0 0 0
309 5 1 9.156469366157445 6.70751818870196 34.59909174549292 0 0 0
310 5 1 10.113893446882052 7.468768519762578 35.475117841231025 0 0 0
311 5 1 10.849002351787659 6.609077785528302 36.4332775017842 0 0 0
2737 29 1 15.230983455018729 11.037073506042857 30.080974969301987 0 0 0
1486 15 1 7.3936380583466175 17.969577878166245 26.723000339572398 0 0 1
4085 37 1 16.367374834688505 24.206480768112282 32.27516424946209 0 0 0
301 5 1 2.8995901859453777 6.6158832347394725 26.64369171614756 0 0 0
253 20 1 7.24004411172673 4.5704814919786125 26.623459768442867 0 0 1
7577 19 1 1.981127020059696 15.354853712532474 37.673935314167124 0 0 0
8053 61 1 0.508340629347741 24.858206570732044 36.6713488577644 1 0 0
1679 21 1 8.581852204936618 22.273240705507057 28.669509906541865 0 0 0
1654 21 1 17.727013265432582 21.77473579962573 40.62277694619577 0 0 0
2144 21 1 16.973079782603904 2.8314651208511705 33.33749546287552 0 0 0
560 30 1 14.758214051913425 9.354689533530262 35.36898441734846 0 0 0
561 30 1 15.368883404675053 8.323050799502983 36.35705306418082 0 0 0
562 30 1 16.200645715401674 9.104833241205942 37.414885424438665 0 0 0
4177 17 1 18.013732483888983 0.7933894877392204 29.0582771895072 0 1 0
563 30 1 16.79789273133838 8.286253409337455 38.517084012116456 0 0 0
1931 23 1 18.754764528420925 0.05203126345839805 41.56623091592572 0 1 0
2141 21 1 14.54680945821809 2.1019707105744403 30.455418585887728 0 0 0
6834 55 1 1.5837938455732687 7.17257922783697 36.32639917569695 1 0 0
4633 41 1 1.294802618601429 4.526786475328079 42.56576722725491 1 0 0
1050 14 1 15.82714337867644 15.954199734610585 44.23672487568675 0 0 0
7292 54 1 3.1962486751701285 11.832979385033651 38.33273612378112 0 0 0
312 5 1 11.382238423096783 7.425571091681477 37.66319902397043 0 0 0
1918 23 1 8.29086247559481 26.57027482883854 28.83797180054238 0 0 0
565 30 1 18.263690726444253 8.37057564345842 40.5873743890138 0 0 0
2139 21 1 13.151750095979585 2.054197744631427 28.331254547046303 0 0 0
594 30 1 11.799228656964607 8.96026263413882 32.84019297578186 0 0 0
595 30 1 12.883994357548975 9.662601525139927 33.588000360675956 0 0 0
596 30 1 13.616831327599972 8.738375081909775 34.56837631111227 0 0 0
597 51 1 8.698390473144634 11.954099096291483 33.65773766513298 0 0 0
598 51 1 9.162239821425265 11.113194642954982 34.776040646339176 0 0 0
599 51 1 10.21319701971564 11.84144304114093 35.57866501418294 0 0 0
600 51 1 10.856265732786852 10.94542302526853 36.64239931050375 0 0 0
601 51 1 11.95429436534062 11.573103288697764 37.520767291780714 0 0 0
602 51 1 12.649775714354536 10.731183721927783 38.62146548301641 0 0 0
603 51 1 13.379169619736148 11.587397600996358 39.72094441574366 0 0 0
604 51 1 14.117763757039647 10.63050509068834 40.667214622109974 0 0 0
6833 55 1 0.36131865358833765 6.590309479899064 35.62510248398036 1 0 0
1916 23 1 6.529863954363175 0.07543308814211654 26.836324162928776 0 1 0
2960 32 1 16.743186247472217 14.038063846342668 27.47604140599602 0 0 0
2957 29 1 11.843716272733854 11.183477463606815 26.32439794276879 0 0 0
7542 58 1 8.174306716303935 13.334705575554676 39.286094102548944 0 0 0
7533 58 1 1.0307904763519575 14.422868557483104 30.61535913874241 1 0 0
1487 15 1 7.66442288852188 18.65284184768144 28.037437555344 0 0 1
8281 64 1 4.292348132883803 26.277917686443395 35.521342094066384 0 0 0
1603 38 1 2.4794406712598165 19.924153769450143 27.19012217849975 0 0 1
3645 35 1 17.970202831759423 19.73981987907577 34.43550619977641 0 0 0
221 2 1 3.7743207330089783 2.856681766575573 27.84590763529647 0 0 0
817 51 1 5.166061722248571 12.297634347218322 29.94880529660513 0 0 0
818 51 1 5.961318559747338 11.511244974184054 30.91153821989778 0 0 0
819 51 1 6.916171407623776 12.258392352287249 31.861735964835667 0 0 0
820 51 1 7.605628380744556 11.332105960512006 32.80832993668419 0 0 0
1606 38 1 4.76993009776333 20.84530627006436 30.242740206385527 0 0 1
3626 36 1 16.082909153556727 17.801604430816163 26.211591466021744 0 0 1
257 20 1 10.300689389571621 4.526016418343092 30.647993534432036 0 0 1
1929 23 1 17.033694005186092 0.24767485696259928 39.5527115330556 0 1 0
825 27 1 9.610692367648248 14.318332943939835 29.549911806473464 0 0 0
826 27 1 10.38062577795438 13.534773104339964 30.57286935874899 0 0 0
827 27 1 11.403726031961341 14.261434788347325 31.50363691819488 0 0 0
828 27 1 12.053830917201925 13.407852482703852 32.508965434588475 0 0 0
829 27 1 13.012807269531324 14.157168570105283 33.481351817788365 0 0 0
7753 59 1 5.218018019632924 20.43542832933541 42.56371010447437 0 0 0
830 27 1 13.82997160971263 13.276267980135586 34.45538899189457 0 0 0
3636 35 1 9.93585729538869 20.756830006796996 26.079859650377198 0 0 0
7691 61 1 11.090114160640393 17.94638125178842 43.28946778091984 0 0 0
317 5 1 14.878052061259194 6.268296292737972 42.88843208028305 0 0 0
3193 3 1 15.603560573882662 16.26836304542098 31.772846904073226 0 0 0
3641 35 1 15.076513035019772 20.014896555023306 30.172115159502525 0 0 0
7295 54 1 5.071229717349973 11.221350058211831 41.68844318815983 0 0 0
294 3 1 14.37191552869326 4.7632253459989045 35.51454587329442 0 0 0
1045 14 1 12.453769557566451 15.205340018254727 38.74679871914415 0 0 0
1046 14 1 12.917515106893692 15.723785609101087 40.09978686963473 0 0 0
2736 29 1 13.96353035435686 11.64272157304239 29.495060638231557 0 0 0
1258 13 1 3.7821527925607965 16.415055512970483 27.905375535112668 0 0 1
559 6 1 9.688092736866457 9.876124146360974 29.887324289239054 0 0 1
3640 35 1 13.910739063063257 20.767718961565844 29.472667333873876 0 0 0
7290 54 1 1.6370511414828617 11.850185024473207 36.31432910482306 0 0 0
557 6 1 8.05022382756301 9.868980377435632 28.085923009164716 0 0 1
558 6 1 8.891945533228384 8.980991694796856 28.933480799893093 0 0 1
6840 55 1 5.722156207487535 7.302119451439839 42.65152303126557 0 0 0
592 30 1 10.40115162953491 8.941994214586167 30.819548680280196 0 0 0
7071 49 1 8.980046224721999 8.860419717371801 41.31889313592354 0 0 0
7689 61 1 9.563551730965182 17.775954251310942 41.36110505707587 0 0 0
8289 64 1 10.718584675237468 26.6088753676867 43.43801250320223 0 0 0
1922 23 1 11.237368035307437 0.10613836607072855 32.81505446348679 0 1 0
8280 64 1 3.9005597704605623 0.2242483160516412 34.19682139861428 0 1 0
1894 56 1 4.194235276852515 24.1877460481853 29.011417177518144 0 0 1
1263 14 1 7.923538729120241 16.065594374607347 32.593460407011705 0 0 0
1264 14 1 8.47154569847199 16.71649523021801 33.87116872461907 0 0 0
1265 14 1 9.56465518259156 15.83970651257412 34.392120682061 0 0 0
1266 14 1 10.088266913923263 16.263927811040436 35.73788435846146 0 0 0
1267 14 1 11.10040395212813 15.364259898783981 36.551341875613716 0 0 0
1268 14 1 11.37931408972233 15.962396688953753 37.95041422763692 0 0 0
1269 14 1 12.433435070409066 18.4055466344707 34.01391778734061 0 0 0
1270 14 1 13.65520568935217 17.83466529541234 34.64637453248292 0 0 0
1271 14 1 13.805870375247567 18.23843816799209 36.136050947149776 0 0 0
1272 14 1 15.165247134612734 17.734375654290538 36.637892201726245 0 0 0
1273 14 1 15.432224264536574 18.0091915872817 38.11969500125148 0 0 0
1274 14 1 16.79672961164969 17.479594645505074 38.557820298238624 0 0 0
6537 53 1 3.0554337226727224 1.9555632833550889 39.522360294312264 0 0 0
8287 64 1 9.161078047612268 26.370728771107174 41.59972615407296 0 0 0
7680 61 1 2.1951037496760564 18.453782633625604 33.04157034720327 1 0 0
7060 49 1 0.9086016425016198 9.897064295458906 30.00507448875879 0 0 0
2959 32 1 16.575249584268906 13.593034950760057 25.995905188572387 0 0 0
7830 59 1 9.078988328640028 22.509036695146875 41.01452409491151 0 0 0
2735 29 1 13.679089468723422 11.182919261358425 28.100254068911738 0 0 0
7538 58 1 5.301128156262211 13.505453856276112 35.01218338270052 0 0 0
1049 14 1 15.446896239770364 15.168609478040175 42.97996692011956 0 0 0
1490 14 1 10.488189978873711 18.140654667428635 30.559349650333306 0 0 0
1491 14 1 10.949108347857937 18.689622279304448 31.881089674846415 0 0 0
1492 14 1 12.268548786741533 18.08775619094461 32.53565143598175 0 0 0
1493 18 1 11.345899127250465 20.991007782813494 38.17479654545201 0 0 0
1494 18 1 12.138787681573914 20.12217266777491 39.06222995795959 0 0 0
1495 18 1 12.964030122651327 20.79815389943573 40.11948420171903 0 0 0
1496 18 1 13.649178608901067 19.773114716831216 41.00634666475051 0 0 0
1497 18 1 14.120634746869808 20.367071741593772 42.3458369793862 0 0 0
7582 19 1 5.686153918370781 16.20952455218598 43.1862440729096 0 0 0
835 27 1 17.55227073703163 13.758291945031997 39.498359736429116 0 0 0
2650 26 1 12.251609248741442 6.8120642715489845 26.201793228044238 0 0 1
605 51 1 14.708514576609872 11.345791721380092 41.8355926886529 0 0 0
1262 14 1 6.640193536278063 16.71722565583477 32.0289776548715 0 0 0
3638 35 1 11.894124820005025 20.702415365558068 27.774303400098347 0 0 0
7074 49 1 11.622087811792149 9.358264138265383 43.97810893637348 0 0 0
3639 35 1 13.137119144955102 20.017721625190923 28.442537909280944 0 0 0
1602 38 1 1.955619128043714 20.82441969728419 26.015963957128253 1 0 1
6802 57 1 10.598863229282342 4.486939557591646 43.504338584209655 0 0 0
7827 59 1 6.156788253023891 21.850041008879963 38.407022420343196 0 0 0
5574 41 1 1.7632288016741064 17.19977239122523 43.75392004324239 0 0 0
1523 18 1 6.390046104660399 20.841529365984304 32.15224218156115 0 0 0
1524 18 1 7.0678682870789045 20.19749065536545 33.3551887360677 0 0 0
1525 18 1 7.83205608719247 21.080095507858683 34.27384605775331 0 0 0
1526 18 1 8.760258976890846 20.25417660413663 35.24886353125179 0 0 0
1527 18 1 9.489268699549946 21.10723312166184 36.2679546895294 0 0 0
1528 18 1 10.286869762089566 20.27620339571466 37.295005279669866 0 0 0
1644 21 1 10.075037602325287 22.35644536059457 30.681516009682518 0 0 0
1645 21 1 10.768924148852456 23.096115034734026 31.793326219787232 0 0 0
1646 21 1 11.675882446074013 22.154450972379575 32.525344221835034 0 0 0
1647 21 1 12.164492313502695 22.83592109410078 33.824727776484146 0 0 0
1648 21 1 13.081071915665726 21.877391353482015 34.61648762144826 0 0 0
1649 21 1 13.72991819834893 22.551286066126277 35.8034626086294 0 0 0
607 51 1 16.187718676547146 11.486250605885607 43.726243015059424 0 0 0
1923 23 1 12.650475304605079 0.30814902261452676 33.31125720456747 0 1 0
1898 18 1 7.440273792180067 24.641181545248063 33.02003022824441 0 0 0
260 20 1 12.76356201911528 5.010753952643836 33.587970283244886 0 0 1
7537 58 1 4.037131052922962 14.150663460695961 34.525711303890255 0 0 0
3637 35 1 11.227977808884459 20.078022316538966 26.546984173903795 0 0 0
834 27 1 16.71214861894486 12.95543323246734 38.48702468942906 0 0 0
2962 32 1 18.22894964149624 13.70088158950191 29.57382528139791 0 0 0
2572 24 1 16.850310674083037 5.239012065125565 27.24207907488606 0 0 1
3188 3 1 11.821640739205957 15.488337782039062 26.49727019055362 0 0 0
6541 53 1 6.138842783432698 1.9213704754540768 43.60013918824451 0 0 0
1680 21 1 9.194812888662732 23.1503232756025 29.7828148794576 0 0 0
1681 18 1 12.65619146838115 25.007199261376392 40.41802988031303 0 0 0
1682 18 1 13.806344559837909 24.38405300274106 41.13798397516231 0 0 0
6790 57 1 1.4843244847759642 3.961024235198353 31.00182027667298 0 0 0
6789 57 1 0.7986769624095613 4.845412025838768 29.947952139620817 0 0 0
2651 27 1 16.101311780993576 8.445762907910066 26.02358562050825 0 0 0
3189 3 1 12.389377130037312 16.25648305804861 27.628001572900967 0 0 0
1924 23 1 12.78342553191179 0.0652554593902187 34.75893276541746 0 1 0
1683 18 1 14.076404410801437 24.765377691045927 42.61258174083161 0 0 0
7575 19 1 0.47440786223185993 15.927478005392253 35.64056751302124 1 0 0
13 2 1 15.646061136874167 2.6171934529632552 43.861927329980844 0 0 0
1897 56 1 5.99850367379375 24.80054664621314 32.44120072043736 0 0 1
1920 23 1 9.733237739877852 0.09963792390004778 30.83843079531357 0 1 0
7685 61 1 6.491974273657957 17.903687700512663 37.39650314847954 0 0 0
2580 25 1 17.333625982478733 7.626111533827091 33.440022532327774 0 0 0
1261 13 1 6.270782010596516 16.066262096942683 30.73488339115725 0 0 1
6317 2 1 1.6930349808197733 26.39859208443829 44.34397119851574 1 0 0
7826 59 1 5.406731331520948 22.731894203815525 37.44635105350705 1 0 0
1678 21 1 7.697146491680716 23.118278080350827 27.71980618564689 0 0 0
1900 18 1 8.948322608002321 24.33831821765538 35.06925514733348 0 0 0
1901 18 1 9.318375000603707 24.648847437637492 36.52120114924743 0 0 0
1902 18 1 10.84447120192419 24.62628657923642 36.8308764510618 0 0 0
1903 18 1 11.0853077692258 24.827064191290365 38.36776001132013 0 0 0
1904 18 1 12.460797509424122 24.486459567940024 38.98460326619122 0 0 0
314 5 1 13.293841205710958 7.071202644606511 39.44106434259545 0 0 0
7581 19 1 5.313514895289864 15.66633919830697 41.79765705989466 0 0 0
6538 53 1 3.9487574209108702 2.663164564970687 40.519418942295324 0 0 0
8056 61 1 2.8924761897423776 24.122294413346662 39.698666348786006 0 0 0
1048 14 1 14.360394190057606 15.726685076677885 42.11426561601259 0 0 0
7291 54 1 1.9345161490537939 11.192755947891518 37.599858596196555 0 0 0
833 27 1 16.050188074667137 13.986747674417321 37.58732974823961 0 0 0
7754 59 1 6.039020728525619 19.544154763699726 43.53473277645356 0 0 0
7062 49 1 2.667473020326706 9.730635492995596 31.876682316656616 0 0 0
261 20 1 12.91163303528355 4.499850380162781 35.01154233246302 0 0 1
1489 14 1 9.247550254289907 18.88915510839827 30.06078517715825 0 0 0
7540 58 1 6.838317395239253 13.339529167068886 37.162506763485524 0 0 0
7749 59 1 1.8264034387468087 20.61354797047404 38.808808235657494 0 0 0
262 3 1 17.706123662260328 3.8817587686824573 40.87560798751124 0 0 0
4975 53 1 1.587637966978448 8.910331360182894 42.4743310361176 1 0 0
256 20 1 10.048977187073413 5.262051245805217 29.35748764538968 0 0 1
3190 3 1 13.470303764861255 15.517619567867744 28.41916073088793 0 0 0
7578 19 1 2.386545506925419 15.79901338760691 39.089761413766865 0 0 0
3863 10 1 17.53874068992427 22.04092511266869 28.25729951992546 0 0 0
8054 61 1 1.3058753008524662 24.015113305371635 37.65975963602489 1 0 0
6534 53 1 0.713587325443434 2.93412028912647 36.357495019877845 1 0 0
6801 57 1 9.765638462489989 5.243060212605152 42.438416008296834 0 0 0
1893 56 1 3.038911728476458 24.94385376053967 28.411984775606385 1 0 1
2740 29 1 17.099035483280733 11.778893682713356 33.482486882429995 0 0 0
7748 59 1 1.2537530573596096 19.941341973750305 37.55743565638147 0 0 0
2143 21 1 15.766809936511482 2.1367024425313024 32.67213688336852 0 0 0
1917 23 1 7.886313800809816 0.3896790480654536 27.449168569169835 0 1 0
7583 19 1 6.803154694084341 15.483607236191393 43.913941547057476 0 0 0
7681 61 1 3.4255329127012155 17.834321324406968 33.55307240196739 1 0 0
10 2 1 12.647926027760537 1.9052708291639093 41.39345270917104 0 0 0
1930 23 1 17.438677671846584 26.290118912989183 40.84729724541032 0 0 0
2145 21 1 17.52388852124571 1.977299994843252 34.54605727190793 0 0 0
2577 25 1 14.910472393359044 6.866957150250162 30.46304887670555 0 0 0
2578 25 1 15.544660163888938 7.674962515635263 31.586606133553644 0 0 0
8277 64 1 1.0792528919770623 26.44450817191444 31.549404318980642 0 0 0
1926 23 1 14.430132756194066 26.546655632587658 36.70832035231895 0 0 0
12 2 1 14.473047281931848 1.9611307610557005 43.207616457136254 0 0 0
8060 61 1 6.179225536100386 24.274593374994353 43.49890329397731 0 0 0
8282 64 1 5.526203326371968 0.07774214598753514 36.23976987064438 0 1 0
2579 25 1 16.538091247641717 6.819835680589388 32.37038195396809 0 0 0
255 20 1 8.712676005998691 4.747947917945896 28.73915632155891 0 0 1
2613 25 1 13.895071171410077 7.589818389407206 29.677660062739424 0 0 0
7061 49 1 1.582039672124293 9.012293416295435 31.060304422847505 0 0 0
1605 38 1 3.9645920568610116 19.994680645037672 29.31858531015409 0 0 1
8286 64 1 7.966965707095742 0.23184547278076065 40.787577341861656 0 1 0
1650 21 1 14.702074384551285 21.717950704731994 36.58963115193114 0 0 0
1928 23 1 15.840738524357628 26.28781888444332 38.82479455134189 0 0 0
7825 59 1 4.534610499028908 21.952419880939324 36.46258859371459 1 0 0
1275 14 1 17.251714610152938 17.979969158341852 39.91969056371353 0 0 0
7832 59 1 10.756026508199856 22.50425117139661 42.88408192514342 0 0 0
1919 23 1 9.477360070771999 0.5821331509160721 29.40074513688452 0 1 0
5864 49 1 1.5454399929167129 21.83747290016179 44.162245352332135 1 0 0
1276 14 1 18.420537014133817 17.347524492776724 40.61788796459109 0 0 0
1899 18 1 7.653050883354091 24.88373422790427 34.51968098488755 0 0 0
4086 37 1 17.082537075728055 24.914330315702298 33.391648516948024 0 0 0
3627 36 1 16.54476820276951 18.38496266371258 27.446684550158402 0 0 1
8288 64 1 9.426198341814365 0.3931514319135977 42.890632159972085 0 1 0
3864 10 1 18.484009245341397 22.918983071625302 29.17326179964393 0 0 0
1655 21 1 18.31179090193441 22.410323888083298 41.874874005360724 0 0 0
1488 14 1 8.826492036553299 18.042480045123447 28.781673552187357 0 0 0
7070 49 1 8.615372681003844 9.583469140505759 40.08072331833314 0 0 0
1891 56 1 1.8955452885667463 25.283353787631423 26.24586475889545 1 0 1
7297 54 1 6.357705708333867 11.115484244968743 43.79249923179554 0 0 0
11 2 1 13.691258935260942 2.7587035961451445 42.15988583846802 0 0 0
2738 29 1 15.52623013931801 11.633986243170407 31.423917180895746 0 0 0
316 5 1 14.499209572299081 7.032665467773994 41.617798573838975 0 0 0
815 51 1 3.4272585753997387 11.885113918971923 27.902457463273205 0 0 0
7821 11 1 1.7487510523850582 22.00788810642149 32.02587973539157 1 0 1
7679 61 1 1.933349660141306 17.992928926721486 31.603458063546938 1 0 0
1921 23 1 11.016717639014391 0.6714914610702247 31.46043832313719 0 1 0
6839 55 1 4.737949261255122 6.631418938435663 41.758153693150874 0 0 0
7684 61 1 5.135293244191517 18.0699572362366 36.824065989363255 0 0 0
8059 61 1 5.306763433978212 25.060923579463296 42.552044692575144 0 0 0
7541 58 1 7.007374662721027 14.008395210718637 38.54837545645313 0 0 0
4083 37 1 14.938262461274503 24.36691420185235 30.15642722820275 0 0 0
6841 55 1 5.893793405869005 6.678361185274914 44.062397037871804 0 0 0
313 5 1 12.123652252614075 6.48506234450156 38.606980889620274 0 0 0
593 30 1 11.276221721327117 9.82210164981393 31.75745941272205 0 0 0
7823 59 1 3.1529700296396745 22.03894919066932 34.219121904096035 1 0 0
7073 49 1 10.38980795641942 8.868323391865687 43.325286665222556 0 0 0
7750 59 1 2.89044831877011 19.76439428475844 39.52848159651361 0 0 0
7683 61 1 4.986215654918766 17.830231125822117 35.37798856055326 0 0 0
4081 37 1 12.965789242295772 24.14076765066705 28.52953670703099 0 0 0
4082 37 1 13.747556679357944 25.0365643194333 29.460265238993443 0 0 0
6316 2 1 1.4947806750847072 0.19053502254015747 42.87844295205602 1 1 0
3192 3 1 15.20179754270974 15.623684896734291 30.40972780654154 0 0 0
7688 61 1 8.133657405106018 18.02055851237666 40.87435229086171 0 0 0
7829 59 1 7.812265872533115 21.862281180285944 40.44466311288774 0 0 0
4079 37 1 11.35811665239613 24.157128903833627 26.483978778828035 0 0 0
1498 18 1 14.95416286580002 19.469715618124525 43.23793195267851 0 0 0
2140 21 1 14.081272209735632 2.889643986218247 29.219477492016345 0 0 0
3191 3 1 13.975985215275985 16.24004957247882 29.64551979972154 0 0 0
7296 54 1 6.310367826078582 11.831176911605189 42.399078691217156 0 0 0
3194 3 1 16.761889515963595 15.577385100411837 32.474154976389976 0 0 0
4976 53 1 1.795718851786767 8.515867352581829 43.921276790128246 1 0 0
7686 61 1 6.5271378647455975 17.785925160674132 38.940922944852026 0 0 0
7069 49 1 7.6093862614052385 8.746844772859424 39.25242163043477 0 0 0
1047 14 1 13.931041942422713 14.832431736353337 40.947414066678235 0 0 0
7543 58 1 8.661142719512025 14.109655140601259 40.49786413695351 0 0 0
7544 58 1 9.804693949692258 13.385966081114631 41.30112400931325 0 0 0
8055 61 1 2.1455946103956585 24.876076030232273 38.588620646848256 0 0 0
7831 59 1 9.476793831524313 21.891428207035705 42.363170858911985 0 0 0
836 27 1 18.191608551391894 12.924129479407256 40.63383118039585 0 0 0
7546 58 1 11.421697792625997 13.026717743003386 43.3066818835333 0 0 0
3195 3 1 17.025058340495573 16.091675158378763 33.87289038470244 0 0 0
7579 19 1 3.7280019911008786 15.379335617162534 39.633494833716554 0 0 0
8279 64 1 2.7665984312566887 26.242926380448008 33.46508650114 0 0 0
1653 21 1 16.776236322421948 22.500068927448094 39.68365414796303 0 0 0
7682 61 1 3.548128763096687 18.11260328950832 35.05420066094227 0 0 0
7539 58 1 5.726261591177751 13.979227001303027 36.406170413450965 0 0 0
2739 29 1 16.764706251445244 11.086720828109065 32.166564533926504 0 0 0
8278 64 1 2.3288255338333967 0.2947936634698631 32.16219046930395 0 1 0
8276 64 1 0.6903314279131889 0.6154566838343977 30.32213225241232 0 1 0
606 51 1 15.433583091136464 10.534014235980555 42.801635675719105 0 0 0
7687 61 1 7.97537115667184 17.67054253706957 39.403122807038336 0 0 0
2742 29 1 18.626716333275443 11.598821389870206 35.51673477077203 0 0 0
4174 17 1 15.72452423684042 26.563518329900106 26.144248173917127 0 0 0
7536 58 1 3.4698870618626727 13.57701148813974 33.29661133327646 0 0 0
9 2 1 12.176690183864263 2.5629157777966065 40.143890980154566 0 0 0
1895 56 1 4.388223192649277 24.463033051414556 30.53103859612272 0 0 1
3196 3 1 18.145430588900616 15.333417538145937 34.53466511365145 0 0 0
8058 61 1 4.595622112515259 24.221680675613154 41.51243151703361 0 0 0
5274 44 1 2.458630540140282 12.828180946334683 43.780776755484354 1 0 0
3628 36 1 17.798045134006607 17.731783775174677 28.000493935276513 0 0 1
6836 55 1 2.941829841174166 7.135817564725139 38.43443440986291 0 0 0
2958 29 1 12.421072482602714 11.81524173737062 27.560136709303965 0 0 0
7576 19 1 0.7801191973577001 16.15959363875493 37.12575259624959 1 0 0
1522 18 1 5.240735341876666 20.075031448469982 31.49066205049236 0 0 0
4634 41 1 1.7237688254172399 3.674290124677931 43.75648952805312 1 0 0
7822 11 1 2.6352251788666834 22.745727333625503 32.956057092159796 1 0 1
7293 54 1 3.599563078551984 11.247757463030252 39.68303084859425 0 0 0
7833 59 1 10.850868465391876 21.996446266805947 44.3467569257307 0 0 0
7828 59 1 7.453188877451882 22.443974424190987 39.098733399350124 0 0 0
2138 21 1 12.676958093084378 2.9511675525187795 27.261369011246913 0 0 0
6539 53 1 4.797279188574043 1.8706984334372587 41.502878080822605 0 0 0
6540 53 1 5.525104551798473 2.7519916233950172 42.46866775100135 0 0 0
2573 24 1 17.46902965306063 4.350779538292604 28.281017707137988 0 0 1
1927 23 1 15.790359953721143 0.11043010685509051 37.426141197806245 0 1 0
7294 54 1 4.819130412317416 11.869101614315154 40.315967135641685 0 0 0
1925 23 1 14.196524647983445 0.29173475764838785 35.25417164396961 0 1 0
814 51 1 2.574544750819667 11.034070519226136 27.080744316091167 0 0 0
220 2 1 2.5011857937951065 2.3433147395124343 27.23643670442059 0 0 0
3862 10 1 16.891117308363313 22.716958251897626 27.08041685370278 0 0 0
6800 57 1 8.99151219171651 4.368174661824877 41.39181870272208 0 0 0
1652 21 1 16.538922865876064 21.75727346531933 38.338900282443944 0 0 0
3642 35 1 15.475814379628137 20.67784288519584 31.515072333997608 0 0 0
824 27 1 8.917373695810666 13.424122012318271 28.527418438436015 0 0 0
4080 37 1 12.09915561516918 24.987721065689865 27.583229041011723 0 0 0
1892 56 1 2.9854772503050135 24.58224975483235 26.932843251787258 1 0 1
6791 57 1 2.545506133100136 4.592670903037509 31.90459269686594 0 0 0
6792 57 1 2.9261039617656333 3.842276253906067 33.16535943950129 0 0 0
6793 57 1 3.8672200601860665 4.690002885239252 34.03088942099623 0 0 0
6794 57 1 4.280917610543997 4.063150913433775 35.350122860235885 0 0 0
6795 57 1 5.028367423253902 5.003755444872181 36.32732676865654 0 0 0
6796 57 1 5.81496353958558 4.167461350543758 37.374140392439465 0 0 0
6797 57 1 6.76564269967511 4.990358188028697 38.21365182716205 0 0 0
6798 57 1 7.462948597967625 4.210906269364684 39.30249356665709 0 0 0
6799 57 1 8.304574722653893 5.0832546337822135 40.24147375313687 0 0 0
7752 59 1 4.619613197856691 19.672485377891284 41.37098285758019 0 0 0
1651 21 1 15.634375411819759 22.552979005783637 37.45631056130035 0 0 0
7580 19 1 3.9369097599683327 15.825368428349439 41.082328661704004 0 0 0
6535 53 1 1.4979985508445837 2.093543689491603 37.434028644204616 1 0 0
7534 58 1 2.0022589785725877 13.591346425961422 31.421872914131477 0 0 0
8284 64 1 7.027795670455596 0.2506769097963857 38.34832041869004 0 1 0
8283 64 1 5.889853848029797 26.152834317683936 37.60855977964506 0 0 0
831 27 1 14.302408371683683 14.11576367059013 35.62394820022328 0 0 0
6838 55 1 4.364287661804385 7.387173828630251 40.53639542661334 0 0 0
1684 18 1 15.240137427120441 24.009172486446488 43.12160059956258 0 0 0
2137 21 1 11.590125843299472 2.1851059043670413 26.472852998667477 0 0 0
3643 35 1 16.44319216492875 19.87294306822012 32.34996867267093 0 0 0
7751 59 1 3.540265543445821 20.532191937482786 40.705603158365975 0 0 0
832 27 1 15.092950613249457 13.279431770725004 36.63509635850826 0 0 0
254 20 1 8.420806866037081 5.2872664846555 27.31414893802517 0 0 1
7647 9 1 0.43060111262589873 18.141758503522098 29.590659117241326 1 0 1
318 5 1 15.938468803367599 6.898225281514186 43.742089860087034 0 0 0
1932 23 1 18.640220930896522 26.43278655294779 43.021750538991434 0 0 0
7072 49 1 9.952685207318202 9.686524426931971 42.09690638112169 0 0 0
1259 13 1 4.796787036519884 15.71005397910398 28.70657180081979 0 0 1
4084 37 1 15.476200876698911 25.090662426668025 31.370634902509785 0 0 0
822 27 1 7.236060523913398 13.268892261252473 26.672211393589347 0 0 0
1257 13 1 3.267495762957711 15.571905415484267 26.80261414177044 1 0 1
3644 35 1 16.86054206976307 20.440373975616552 33.63594253320075 0 0 0
4088 37 1 18.695315784131765 24.909584905085662 35.45535891753309 0 0 0
7532 58 1 0.6357995504662166 13.993636817250534 29.164957039579342 1 0 0
7063 49 1 3.345944551182367 8.889853752181295 32.96854688786237 0 0 0
7064 49 1 4.075970098452849 9.868977894970037 33.88268475400377 0 0 0