LAMMPS data file via write_data, version 23 Jun 2022, timestep = 11111117

9706 atoms
2 atom types
9690 bonds
3 bond types
9674 angles
3 angle types
9658 dihedrals
3 dihedral types

0 36.89775039 xlo xhi
0 26.67072 ylo yhi
36.78918434655333 199.96242005344948 zlo zhi
0 5.133785287110971 0 xy xz yz

Masses

1 14
2 15

Pair Coeffs # lj/cut/omp

1 0.0914 3.95
2 0.1947 3.75

Bond Coeffs # harmonic/omp

1 449.5 1.53
2 449.5 1.53
3 449.5 1.53

Angle Coeffs # harmonic/omp

1 62.0967 114
2 62.0967 114
3 62.0967 114

Dihedral Coeffs # opls/omp

1 1.411 -0.271 3.145 0
2 1.411 -0.271 3.145 0
3 1.411 -0.271 3.145 0

Atoms # molecular

1 2 1 8.315966207648206 24.515326370220915 45.287069573561894 0 -1 0
2 2 1 9.66930759930073 23.952885056672915 45.73070841654786 0 -1 0
3 2 1 9.766401067547648 23.07581690141909 46.93243159082963 0 -1 0
4 2 1 11.031375631634031 23.159304771940267 47.77192284092443 0 -1 0
5 2 1 11.178789525026934 21.883633731475413 48.65719639759657 0 -1 0
6 2 1 12.458153447430224 21.860518507400876 49.39615184371031 0 -1 0
7 2 1 12.720631541560891 20.55187113624303 50.05253176393275 0 -1 0
8 2 1 13.805127665185234 20.777948153965774 51.071233875658564 0 -1 0
216 17 1 2.019942200564891 25.20437086887899 37.726839746676404 0 -1 1
379 6 1 5.520547238733537 1.8236470399931701 37.624017095486124 0 0 0
4719 29 1 16.062848649487222 21.112098585442993 38.11418916551747 0 0 1
4037 28 1 17.169218086536045 11.83777309020055 44.42762362605258 0 0 0
4410 28 1 18.068946853954422 16.196287581202014 45.98571811599557 0 0 0
304 6 1 8.936940866690772 1.5758910651467803 40.72273687557087 0 0 0
2971 19 1 15.361611584524294 3.955346371386732 38.291398238734125 0 0 0
7304 48 1 2.5044286755127914 24.438152286778077 48.66582188518585 0 -1 0
10 2 1 15.317068980712252 19.490214647997586 52.610961347694854 0 -1 0
396 57 1 13.735180315590728 24.06510662963335 51.71904595481978 0 -1 0
220 2 1 4.949443892544509 26.408119783324473 40.798973406576955 0 -1 0
221 2 1 5.097508039004779 26.23002643820858 42.28659857191781 0 -1 0
222 2 1 6.580625551035724 26.099828010056374 42.533839271808745 0 -1 0
223 2 1 6.698166653772006 25.296613777136724 43.77338638448073 0 -1 0
224 2 1 8.188175977799641 25.24376715440268 43.91664089409768 0 -1 0
4022 27 1 14.892646434634816 12.898670816338358 38.1310989563902 0 0 1
305 6 1 9.539997301230594 0.25666364344285336 41.15214216841676 0 0 0
306 6 1 10.385901834398627 0.35857993155106727 42.36914169577368 0 0 0
307 6 1 11.143543362438864 25.834085630376027 42.70982208863596 0 -1 0
308 6 1 12.112424213838501 26.16526378336526 43.84756638740245 0 -1 0
309 6 1 12.761050506096787 24.898125757888746 44.31816909633609 0 -1 0
310 6 1 13.731475707835772 25.172373644672646 45.44404253204992 0 -1 0
311 6 1 13.9035439684941 23.863261619879882 46.206369457670505 0 -1 0
312 6 1 14.933096158539188 24.07869238063434 47.342242869406725 0 -1 0
313 6 1 15.113782653751827 22.73507145675766 47.90084317313352 0 -1 0
8127 39 1 1.1309309125672664 7.736312529371625 47.0467931784045 1 0 0
4187 24 1 14.256707036928164 17.950357025739205 37.23400619567529 0 0 0
1467 11 1 15.889572491930517 9.573951917044074 48.61275595817502 0 0 0
1143 9 1 16.95330372700203 3.922708446748151 48.98849519384761 0 0 0
1209 9 1 7.257861867740268 11.875084409730745 38.019469660849985 0 0 0
820 5 1 6.297752030918476 6.718590411351164 36.958867520072666 0 0 1
316 6 1 17.220380253737254 22.192206631500948 50.69485199518454 0 -1 0
8129 39 1 2.5494280268037888 6.642083701079818 48.57657496816164 0 0 0
383 57 1 4.567097496808303 3.262923042038446 40.97470933262107 0 0 0
384 57 1 5.100508897170016 4.440594776981251 41.78349787127199 0 0 0
385 57 1 6.4768719794359395 4.224386344605886 42.32855800577197 0 0 0
386 57 1 6.511067095890644 3.389737869774582 43.53552547829982 0 0 0
387 57 1 7.864774448622348 3.1340558523600164 44.03806769563637 0 0 0
388 57 1 7.917627151253694 1.9256008915415537 44.988634203683056 0 0 0
389 57 1 9.333040743830226 1.74503750084621 45.543480384268804 0 0 0
390 57 1 9.40210181582137 0.7536977262247442 46.6097805932174 0 0 0
391 57 1 10.87180105645405 0.671445679233859 47.02920595827303 0 0 0
392 57 1 10.726433824698173 26.494829288026924 48.31056350547503 0 -1 0
393 57 1 12.107159197336793 26.21327327228945 48.89684136588208 0 -1 0
394 57 1 12.1479176815063 25.187908360262842 49.99256016986187 0 -1 0
9189 60 1 1.705985019215535 20.266170842369217 43.55595723662803 0 0 0
380 6 1 6.754427509426418 2.685619345688534 37.79634680156462 0 0 0
2585 15 1 11.883358001688753 24.86219696991255 39.50240217474295 0 -1 1
4483 28 1 13.049835862830323 19.489177140013794 41.3605611186775 0 0 0
2816 9 1 14.153730477054483 0.5075155064124162 41.35075764472603 0 0 0
8815 57 1 6.308889926463961 12.289623586598559 48.41594074951035 0 0 0
4036 28 1 16.188542826400457 13.003854567459621 44.20859353050879 0 0 0
1533 11 1 6.187632582218718 16.24114064150369 37.25521145541808 0 0 0
2367 16 1 16.086063139869594 21.800811006551648 44.50320883477248 0 -1 0
2206 14 1 2.9552381160668415 21.451493561649382 38.08173084364217 0 0 0
3417 19 1 11.813272963747108 7.682840462760671 38.069463425658014 0 0 0
607 6 1 14.157490697314742 1.5848484012088255 46.860118735394636 0 0 0
608 6 1 15.308341088780791 0.6987792454631709 47.23507781146867 0 0 0
609 6 1 15.559791493501821 0.8618257364402947 48.74883433664442 0 0 0
1534 11 1 6.667625396947736 16.111316270974218 38.74958956746378 0 0 0
819 5 1 5.4278128350488 5.537414274017752 37.319632584061594 0 0 1
7897 31 1 0.5662072258742797 6.1648396272878365 41.76155836527462 1 0 0
4189 24 1 16.27829947854204 17.332601346708945 38.5421665547149 0 0 0
1753 12 1 2.2690319156858316 15.908638391363334 38.49095740221602 0 0 0
611 6 1 17.223815707042238 26.50038514422869 50.42107239067683 0 -1 0
1210 9 1 8.015936216580986 10.730453756073615 38.71361168562954 0 0 0
1769 45 1 15.874636564488318 14.062737474886562 48.8559260331032 0 0 0
606 57 1 3.750383942093941 3.8719369022713046 39.770990229672165 0 0 0
833 8 1 2.4265643959054928 7.594674576369941 38.674927062105404 0 0 0
3420 20 1 16.002015613288343 7.69337109117611 38.4782886344263 0 0 0
827 6 1 11.482621756083553 3.9831876474365657 43.521195149297995 0 0 0
828 6 1 12.282903302021023 2.756683596665409 43.78252512637448 0 0 0
829 6 1 13.064784393325226 2.8472523177908253 45.05095871026824 0 0 0
830 6 1 13.953998185126993 1.6937231334279859 45.403753275899795 0 0 0
837 8 1 5.894800011638903 8.279944476208437 41.58682840882345 0 0 0
2812 1 1 14.78483256475859 26.405470589381558 37.793494611498474 0 -1 0
9279 61 1 3.4506024502171853 19.812183410320777 50.027672870002554 0 0 0
7898 31 1 1.878324101692607 5.818997061358102 42.58572666491974 1 0 0
4034 28 1 14.406753750080808 13.974608726706531 42.55756196860807 0 0 0
832 8 1 1.3677308341845398 6.530477155741902 38.419429430052304 0 0 0
1142 9 1 15.774082689477428 4.871926200081171 48.779261799634796 0 0 0
838 8 1 6.286840752398088 8.74767572283341 42.93443878880548 0 0 0
839 8 1 6.989097978842097 7.464247364100845 43.450869631356774 0 0 0
840 8 1 7.760238719522389 7.628668229941837 44.741405956968435 0 0 0
841 8 1 8.48510349247961 6.3110565023969745 44.98884738952733 0 0 0
842 8 1 9.01971482989589 6.052599995985494 46.398961095227435 0 0 0
2820 9 1 17.43581621688056 25.096304712985514 44.49357551716375 0 -1 0
2973 19 1 16.99848180164873 2.91800746618455 39.93822348527728 0 0 0
3200 19 1 16.455314375349314 3.9838333717331604 44.198702538738026 0 0 0
4720 29 1 16.317517091394237 20.830079599751578 39.56543110016122 0 0 1
825 5 1 10.014791548331294 5.29207527510947 41.86008065927999 0 0 1
215 17 1 0.7538414538019389 24.257506840685163 37.59985699028558 0 -1 1
1286 61 1 2.4777894110509173 12.32848223593297 38.409678137607045 0 0 0
1376 54 1 0.6624085712321397 10.917685290891812 37.21208435329886 0 0 1
3643 22 1 10.340532994900776 13.028273768321185 37.0618379861647 0 0 0
8425 2 1 1.6123300042502593 10.151519110544964 41.99265967534868 0 0 0
3201 19 1 17.55105954781952 2.9957480898981608 44.454649730241556 0 0 0
1134 9 1 9.614827342448859 9.722644117014955 42.25321107130084 0 0 0
1135 9 1 10.61975759887644 8.711874240572449 42.62186425009008 0 0 0
1136 9 1 11.15504844610164 8.56913146264062 44.05173176338014 0 0 0
1137 9 1 12.08246612163729 7.362088022370337 44.05898390835219 0 0 0
1138 9 1 12.55474912823635 7.218311724596301 45.56808294521529 0 0 0
1139 9 1 13.588795864921039 6.070504858825429 45.80357555797488 0 0 0
1140 9 1 14.275975693858625 5.996121570168637 47.15600042427545 0 0 0
1141 9 1 15.453056980839445 4.963724737868223 47.27314683755418 0 0 0
219 2 1 3.4799885763902 26.21834811873666 40.738053370689215 0 -1 0
3418 19 1 12.112105919427112 7.666013614427222 39.50076403997084 0 0 0
2815 9 1 13.86207332512421 1.6892143036018477 40.474482174189404 0 0 0
603 57 1 0.8830231885108243 2.29243412714824 37.82082741063197 0 0 0
9502 51 1 3.6434353483121225 23.40143046344785 45.75967656650388 0 0 0
4021 27 1 14.898502977683922 13.69615396293115 36.84884195841693 0 0 1
8131 39 1 4.100649733732339 5.540859329539752 50.26920698753332 0 0 0
7908 31 1 9.202593644143164 1.6797613689225948 50.28088884165723 0 0 0
1211 9 1 8.202657064211213 10.71110562418527 40.223442213642585 0 0 0
1212 9 1 9.238171546859455 9.64852214143663 40.70508272545819 0 0 0
1213 61 1 6.743353795052437 11.809601449448886 43.487956840581276 0 0 0
1214 61 1 7.739361742467432 12.162107227696577 44.48537646631105 0 0 0
1215 61 1 8.211429284956957 10.923729053478352 45.06970887764518 0 0 0
1216 61 1 9.489888139882444 11.000841940604944 45.99995914694317 0 0 0
1217 61 1 9.400218219443515 9.694344625914875 46.90400089222854 0 0 0
1218 61 1 10.714482589219196 9.695608796917217 47.77138200204036 0 0 0
1219 61 1 10.987684021353132 8.331629926450553 48.45538809857901 0 0 0
1220 61 1 12.061372446921048 8.334752331565253 49.54083727370393 0 0 0
2297 14 1 17.902151351951115 18.671048363965483 50.73934112169904 0 0 0
9278 61 1 2.8946365936775145 20.081030022120913 48.59895773687186 0 0 0
2583 15 1 10.297511568379825 25.87093425399019 37.887612358488596 0 -1 1
3649 22 1 14.518050928018958 9.760369103412394 42.68246305771308 0 0 0
3416 19 1 10.447886774119082 8.29188383168356 37.79939589399323 0 0 0
846 8 1 12.08536326453921 4.023572716008888 49.46143428551411 0 0 0
4191 24 1 17.418831725747737 15.341617414561185 39.873728380279694 0 0 0
1285 61 1 2.0030128517937444 11.031909842797239 37.822042668617506 0 0 0
3199 19 1 15.881979852054476 3.965660310617625 42.78025356300738 0 0 0
6532 44 1 18.319255050626335 14.603382158643281 36.84229500459677 0 0 0
2293 14 1 15.343966784785101 18.567574443092568 47.12725015084014 0 0 0
1288 61 1 4.376109846949097 13.364848522617732 39.522422923742766 0 0 0
1289 61 1 5.074335156230322 13.700184537655941 40.81905231985103 0 0 0
1290 61 1 5.182081268698803 12.566629338004912 41.74564333467252 0 0 0
1291 61 1 6.137496469039857 13.047298846945367 42.874623121706584 0 0 0
4023 27 1 16.146325223540597 12.00727364136973 38.08820567341062 0 0 1
8807 57 1 0.5059299573812311 14.468449993815119 41.9498887489289 0 0 0
1458 11 1 9.301160879112647 14.028598482092654 40.63008103887442 0 0 0
1459 11 1 9.832653749778837 13.95979671424838 42.11789936499397 0 0 0
1460 11 1 10.72589923859537 12.740087874543688 42.45893111389082 0 0 0
1461 11 1 11.132646836778958 12.701996702451135 43.81343230426432 0 0 0
1462 11 1 12.339057606388343 11.840536558701642 43.82562899780577 0 0 0
1463 11 1 12.886733710318474 11.731718761244393 45.20452390698898 0 0 0
1464 11 1 13.487804117563693 10.502079357419237 45.67141290948352 0 0 0
1465 11 1 14.047122241092076 10.40220432790677 47.147209641048654 0 0 0
1466 11 1 14.910417225392667 9.143264374988568 47.561358146027644 0 0 0
604 57 1 2.1937512302231887 2.825101865242733 38.0839167370759 0 0 0
9510 51 1 9.324524575727134 18.28172246533057 51.59116446493475 0 0 0
2817 9 1 15.419334346481794 0.4830433676281837 42.22438660928077 0 0 0
1456 11 1 7.723700020105902 15.127821396835316 39.12629775518363 0 0 0
7594 48 1 4.692109759162119 0.42802335841330147 46.60376115972728 0 0 0
3644 22 1 10.973504870444977 11.793456240850853 37.61152104323423 0 0 0
8513 60 1 4.202936099777432 9.806781352075227 50.02690976571501 0 0 0
1535 12 1 6.625355462699738 17.050718798621165 43.83820048350438 0 0 0
1536 12 1 7.682321584193772 15.922643605018218 44.08684013824702 0 0 0
1537 12 1 8.22095020134736 15.746097054251374 45.43420186424113 0 0 0
1538 12 1 9.457007205275994 14.888566340741116 45.42902736535788 0 0 0
1539 12 1 9.579439669372322 14.354563776651093 46.86957280128556 0 0 0
1540 12 1 11.074899019600458 14.12722165714369 47.36413101316896 0 0 0
1541 12 1 11.186235330681772 13.310197729853725 48.60861023704201 0 0 0
1542 12 1 12.604882489440651 12.939714209409859 48.97101641895442 0 0 0
1543 12 1 12.567984119184294 11.673459817070059 49.85827533686955 0 0 0
1544 12 1 13.977675856461532 11.409074610517145 50.474364499149075 0 0 0
1545 12 1 13.651350705967266 10.771596322255045 51.75112484724108 0 0 0
2587 16 1 13.174321792055972 23.690280046424604 41.012881557770164 0 -1 0
2818 9 1 15.97832696703924 25.93580330030384 42.89144812601528 0 -1 0
218 2 1 3.0487826042346584 26.65108306761184 39.38428353520477 0 -1 0
7593 48 1 4.5222475700805935 0.8900522015014387 45.148963691827234 0 0 0
5417 34 1 1.1132494165353055 4.243411716639684 51.662256201495275 0 0 0
4038 28 1 17.250240709602878 11.426485740210351 45.838636814304095 0 0 0
2298 14 1 18.76647865343396 18.34469299102439 51.93054361109574 0 0 0
8511 60 1 2.7336912251526764 11.244080628309156 48.697644143623904 0 0 0
1755 12 1 3.7607265589462995 16.880424919586666 40.374298589262274 0 0 0
1756 12 1 4.646377438945029 18.08087521250373 40.76686373241737 0 0 0
1757 12 1 4.931115601101585 18.01299586045613 42.23204437215727 0 0 0
1758 12 1 5.997033830229174 16.90312771052735 42.49105975222979 0 0 0
1759 45 1 8.255459940020545 19.553089819492516 40.42345262625886 0 0 0
1760 45 1 9.074062164474396 18.345486003251153 40.763946012535804 0 0 0
1761 45 1 9.735218179750357 18.44781398547663 42.151932597835994 0 0 0
1762 45 1 10.621494977006252 17.348970380959635 42.57084182546252 0 0 0
1763 45 1 11.350233778856847 17.549604121537072 43.909236177330754 0 0 0
1764 45 1 12.319033602128012 16.37240805411921 44.14975749556965 0 0 0
1765 45 1 12.863969307407427 16.31372138831436 45.50311068866804 0 0 0
1766 45 1 13.828385886362069 15.125766372281902 45.69527940322919 0 0 0
1767 45 1 14.244316100281697 15.073824498624855 47.187884814538414 0 0 0
3422 20 1 17.29059037638808 6.425573795145171 40.03065637175816 0 0 0
9509 51 1 9.089362371376598 19.411989169063038 50.658495568024435 0 0 0
7900 31 1 3.3861266168092015 6.8218416745298365 44.589170464873504 0 0 0
4561 29 1 10.340704834072364 20.704044102485128 37.50170020435015 0 0 1
9200 60 1 10.784148620403009 14.044636543128977 52.06327310528112 0 0 0
2586 16 1 12.913805153117853 23.76340880017378 39.60503546045388 0 -1 0
2204 14 1 1.6296495333552186 19.677486648861755 37.21971666352843 0 0 0
1981 45 1 6.28521941149942 20.236540908085132 38.87697855891955 0 0 0
1982 45 1 7.456859675666738 19.34913511053332 39.122219292564246 0 0 0
1983 14 1 2.535508804289126 20.630294469037697 39.270459798457786 0 0 0
1984 14 1 3.0098170467958205 21.166827369138396 40.59587119059312 0 0 0
1985 14 1 3.880601567184969 22.415640712355653 40.31472579906933 0 0 0
1986 14 1 4.937588490333339 22.799123661159953 41.269795740906964 0 0 0
1987 14 1 5.370648615194518 21.777843903867026 42.17429337530835 0 0 0
1988 14 1 6.574198725741594 22.08693831360069 43.0039609782113 0 0 0
1989 14 1 6.973099212519663 20.709039962795682 43.45878686792224 0 0 0
1990 14 1 7.839592798969227 20.82329048983118 44.71704529674121 0 0 0
1991 14 1 8.132238093898344 19.387643568656653 45.07747730770452 0 0 0
1992 14 1 9.336281883890335 19.45332704596933 46.00913071858962 0 0 0
1993 14 1 9.906739197730555 18.17996201511632 46.577018320038995 0 0 0
8810 57 1 3.259677454177116 15.648312025707954 44.218627287268866 0 0 0
8811 57 1 3.368725655821386 14.532940979203934 45.08675260522928 0 0 0
836 8 1 4.912258980690716 9.220613237844274 40.934817211154176 0 0 0
2369 16 1 17.526865665656036 20.695357071836984 46.31048846295528 0 -1 0
3423 20 1 18.08126727542498 6.500794142293982 41.344049346385674 0 0 0
315 6 1 16.93599742905703 21.700627036278892 49.379079101143695 0 -1 0
7302 48 1 0.7876354319070893 25.523427896813992 47.28849728173658 0 -1 0
2589 1 1 15.500705650060322 25.14243530069566 38.040362382719714 0 -1 0
7686 50 1 1.597191014015608 3.2604498161455173 48.74520485047619 0 0 0
1223 61 1 14.075927559398584 6.190473008117139 51.83820753808519 0 0 0
4411 28 1 18.701629509066322 14.87311175055696 46.3340051812973 0 0 0
850 8 1 15.324668331230296 1.582241067227179 52.4045954610156 0 0 0
2286 14 1 10.048709714017262 23.0854877502746 41.595300582290804 0 0 0
2287 14 1 10.487232332446855 21.82821995601953 42.320695465748074 0 0 0
2288 14 1 11.3904389930476 22.0723158664629 43.50004445292568 0 0 0
2289 14 1 11.796237526550469 20.793965715697855 44.083166779214906 0 0 0
2290 14 1 12.52027368703197 20.836893450820245 45.47425407447399 0 0 0
2291 14 1 13.416443854650504 19.642273128965886 45.76298019918596 0 0 0
2292 14 1 14.252701772679346 19.69064731228865 47.007151158993864 0 0 0
1770 45 1 16.6317192010473 12.816846047789687 49.2780336471685 0 0 0
382 6 1 7.8029952200640675 1.3851670026226302 39.697359267955626 0 0 0
8806 57 1 0.3001094775707486 13.473211518352276 40.75535263333026 0 0 0
9198 60 1 9.197695688757621 15.291195073562685 50.86160908955129 0 0 0
7687 50 1 2.902562454764869 2.5377863711270074 48.856969357098535 0 0 0
2819 9 1 16.625825299031987 26.363891881307804 44.19624489822239 0 -1 0
2975 19 1 18.527899747457134 1.7996627665860316 41.4088235638685 0 0 0
2361 14 1 7.038054974451396 25.04779535258645 38.471954870642044 0 0 0
2362 14 1 7.363185061404842 23.75445624706708 39.0847397093786 0 0 0
2363 14 1 8.635365913098603 24.054432238764186 39.89756677803628 0 0 0
2364 14 1 8.970060509477648 22.700888593129505 40.62282440355555 0 0 0
2365 16 1 14.585383974558866 22.641908288674095 42.77373800890231 0 -1 0
2366 16 1 15.798002232207056 21.772386196104755 43.081665010174376 0 -1 0
2296 14 1 17.26031456496571 17.39878374453108 50.23912423379369 0 0 0
2592 1 1 17.77250957664733 24.14165558038832 40.99352590729586 0 -1 0
9277 61 1 1.9952808477446495 21.281419037872467 48.68544013334796 0 0 0
3654 22 1 18.49243291088164 6.321082515486825 45.72385375972616 0 0 0
613 6 1 18.831150087519298 0.8580026801597221 52.13138312131092 0 0 0
610 6 1 16.77598838159288 26.6266069352017 48.93620177613383 0 -1 0
8809 57 1 2.0027211468036255 15.609510294118278 43.54203786989691 0 0 0
2588 16 1 14.32328937634697 22.8304510850603 41.271572157559525 0 -1 0
7690 50 1 4.826727030673332 0.8784594072991673 51.59183264918135 0 0 0
824 5 1 9.240531588091287 5.076581765016129 40.533954909332024 0 0 1
1471 11 1 18.708109003909453 9.828980166228455 52.168665518149844 0 0 0
4408 28 1 16.594152711614267 17.602484207728434 44.35535122470749 0 0 0
2813 9 1 12.04527975872969 2.956996891383175 39.02356464751209 0 0 0
4409 28 1 17.19801035517385 16.256734573008 44.75212515143643 0 0 0
8424 2 1 0.16830770795695438 9.781773910892136 41.76707195426799 0 0 0
4028 28 1 9.841050782929555 17.270007018405163 38.06582190742875 0 0 0
1287 61 1 3.3729812892034827 12.206061431463159 39.597605434661375 0 0 0
1222 61 1 13.845893770850775 7.207900076379598 50.75386598523505 0 0 0
835 8 1 4.205744892022887 8.707490885770596 39.73441149322894 0 0 0
8437 2 1 10.494270690812986 5.2214573415307495 52.28196161576988 0 0 0
217 17 1 1.847942395710595 25.804510175861754 39.0470112936906 0 -1 1
2891 9 1 10.794500803456593 2.940605643055648 38.254173353129524 0 0 0
612 6 1 18.26667839520873 0.9027841828905987 50.77115089577592 0 0 0
4032 28 1 12.835120005365 14.725576140848366 40.80151748406514 0 0 0
3650 22 1 15.63922304433029 8.77886479868276 42.87083485975272 0 0 0
5865 39 1 1.1884124870812096 8.936905008139869 51.69582269197351 0 0 0
2974 19 1 17.887108408193644 1.7730762201214023 40.07635998720276 0 0 0
3196 19 1 13.362241788760596 6.213500531459771 41.129444264618115 0 0 0
3197 19 1 14.456677719833355 5.2770912182060465 41.25607333281635 0 0 0
3198 19 1 14.850372970314378 5.015143104617917 42.70075925207378 0 0 0
7590 48 1 1.9321685670762498 1.286484538592729 43.288838307722955 0 0 0
2368 16 1 17.30868217817188 21.01995221372019 44.86349728355465 0 -1 0
4192 24 1 17.95355849741663 15.345649693543193 41.312871478684634 0 0 0
1768 45 1 15.214547770482774 13.979753099281394 47.57652585678184 0 0 0
9 2 1 14.215156569359639 19.430713827303396 51.57183533680186 0 -1 0
8814 57 1 6.009421293731758 13.166367095155172 47.1942767482171 0 0 0
1468 11 1 16.749530584281484 8.328189213825691 49.04703855830868 0 0 0
9199 60 1 9.312462016002303 14.060135448741313 51.72104871882111 0 0 0
3648 22 1 14.059836107421237 9.778511852825082 41.23563941956048 0 0 0
9507 51 1 7.74962615424564 20.837909076061948 49.23402536023974 0 0 0
1771 45 1 17.205016701158545 12.83556997017376 50.60743365546391 0 0 0
831 8 1 0.8607376316735725 6.5629319926041 36.97866034668369 0 0 0
3645 22 1 11.768703551032727 11.981896975847727 38.805057403227956 0 0 0
3646 22 1 12.415270958837484 10.713469763940285 39.38597860965282 0 0 0
7684 50 1 1.0721042840346728 4.459062378124817 46.47726835693392 0 0 0
4722 29 1 17.6502707997227 19.66874478305496 41.269918363694664 0 0 1
847 8 1 12.439737367096619 2.750653679216328 50.31560644793191 0 0 0
2370 16 1 18.674047073414307 19.6785916318398 46.438823432732974 0 -1 0
3651 22 1 15.879806133834096 8.550976017852538 44.35965629173735 0 0 0
8515 60 1 5.50886686886673 8.541557158611035 51.825409242221404 0 0 0
1457 11 1 8.258932050149385 15.094277130003722 40.55018898106017 0 0 0
9504 51 1 5.119261846920851 22.02101767259422 46.93094418387986 0 0 0
7308 48 1 5.2674379796775606 21.70295239458237 51.82479548919317 0 -1 0
6634 55 1 0.9118721824721809 17.9792326228802 51.679173940022935 0 0 0
2285 56 1 5.510310524228017 23.867574369472607 37.44323011170341 0 0 1
397 57 1 15.12178596211995 24.075697530470524 52.26161737297906 0 -1 0
9497 51 1 0.35813296495720326 23.637985209596426 41.41749877089566 0 0 0
2821 9 1 18.071280262109735 25.267298337273363 45.923173347913924 0 -1 0
4029 28 1 10.859259896286874 16.181160423430438 38.18309184485623 0 0 0
4030 28 1 11.691942236648508 16.58105987715095 39.33217670044711 0 0 0
4031 28 1 12.606209427165858 15.451685511180287 39.383092300658824 0 0 0
1144 9 1 17.492844933523987 3.9556095433587104 50.32058884491389 0 0 0
4564 29 1 12.958111051192532 19.807595637797245 39.89138466313219 0 0 1
9508 51 1 7.888986242788234 19.54345737844198 49.729715737968704 0 0 0
9503 51 1 5.095368487295836 23.077717010149385 45.977273603200906 0 0 0
822 5 1 7.817206395640985 5.9109540436978785 38.637286796299385 0 0 1
7592 48 1 3.3206404516447368 1.8275775431773995 45.30338323948848 0 0 0
4563 29 1 11.713635473244238 20.507737130876368 39.55960322925416 0 0 1
4407 28 1 15.733686505136962 17.555438563581806 43.16694223962034 0 0 0
2890 9 1 10.564801725615192 4.1869999134362965 37.54842063425353 0 0 0
2360 14 1 6.4168286885678505 25.01204311265631 37.17707321021526 0 0 0
1546 12 1 14.868409225168461 10.438601556820926 52.53265474378162 0 0 0
8430 2 1 4.855224379804567 9.052062420054883 46.90226153077803 0 0 0
8817 57 1 7.681364145556581 10.942139211331334 49.71154105716148 0 0 0
843 8 1 9.826282398236927 4.762751134995287 46.45495246060765 0 0 0
3194 19 1 15.075746797027545 3.893925571203502 36.8021126738376 0 0 0
4484 28 1 14.170775983786994 18.594127734538244 41.5486568251733 0 0 0
4485 28 1 14.741004403673644 18.577735398656742 42.97227204896577 0 0 0
8813 57 1 4.739274329043325 13.085481453246336 46.50682670398215 0 0 0
8514 60 1 4.877229591684644 9.848028625064178 51.34288141338496 0 0 0
4033 28 1 14.264328863637372 14.578602246603351 41.2632226787557 0 0 0
2295 14 1 16.75795245169778 17.339905480935723 48.780487732372535 0 0 0
7307 48 1 4.375777772378473 22.965887947683616 51.583475081673406 0 -1 0
9195 60 1 6.566573056410405 16.597811138720495 48.281412892081065 0 0 0
4035 28 1 15.833421534278004 13.362354748208459 42.77710089758324 0 0 0
9194 60 1 6.2569182587841645 17.51251823377568 47.0455076421155 0 0 0
3195 19 1 12.939761219816333 6.312539684744402 39.65061476003297 0 0 0
8901 44 1 4.482008050008951 14.026717496143283 51.54343277218294 0 0 0
3653 22 1 17.318944881038405 7.188704135816382 45.910082933447946 0 0 0
821 5 1 7.178140929898728 7.178904510021501 38.18895593917155 0 0 1
8427 2 1 3.0813618469567006 10.796425786580022 44.04727732806247 0 0 0
9501 51 1 3.137735235263783 23.296034013011898 44.37385730604927 0 0 0
8816 57 1 7.686759418520477 12.07241931963451 48.81777693384839 0 0 0
834 8 1 3.2572703259434053 7.652820337048267 39.964642145489364 0 0 0
1145 9 1 18.17464153771102 5.321286107517545 50.64244309980759 0 0 0
8429 2 1 4.783274101526078 9.962526845151125 45.69007201231399 0 0 0
8128 39 1 1.6331613880080975 7.754516260709472 48.496059197287245 0 0 0
845 8 1 11.249149380280842 3.6853163997807696 48.30574365623472 0 0 0
2584 15 1 11.638549125526605 25.105142254578567 37.99063659506587 0 -1 1
8431 2 1 6.374389452685262 8.725832824466275 47.31199550415965 0 0 0
7688 50 1 3.2668304165933866 2.0428036692718896 50.23293998877141 0 0 0
7588 48 1 0.19710995285881946 0.7880685573766792 41.73369199849054 1 0 0
7303 48 1 1.9033889626985312 25.71626423398447 48.272209914082694 0 -1 0
1980 45 1 5.984866991678733 20.38443549327129 37.41093922843264 0 0 0
7899 31 1 2.7871604612098024 6.990814264260528 43.16769821777171 1 0 0
1469 11 1 17.342838921409452 8.50611783059823 50.45460986093348 0 0 0
8428 2 1 3.379242685495316 10.080271916580038 45.34443974993321 0 0 0
9192 60 1 4.657047173388127 18.939596590951922 45.65592693219961 0 0 0
4560 29 1 10.329222486515926 22.19990622855096 37.49767534118828 0 0 1
7909 31 1 9.191291879365627 0.5399136273472963 51.270371080916135 0 0 0
4188 24 1 15.091533259977375 16.712752861626065 37.71814515223231 0 0 0
823 5 1 8.612515861974266 6.1593273265066815 39.85910357736888 0 0 1
9190 60 1 3.0124454488478496 20.131052428313158 44.077367971831606 0 0 0
9193 60 1 4.861392760208463 17.907065636999338 46.798882916473715 0 0 0
826 6 1 10.844352336748932 4.063212283523466 42.25784928289287 0 0 0
849 8 1 14.006230861011007 1.59867084908029 51.706936228279616 0 0 0
3202 19 1 17.725224501123762 2.821485600965905 45.974595709149796 0 0 0
605 57 1 2.4332524166496357 3.305261279643972 39.51559687410064 0 0 0
1997 14 1 12.620608037668582 16.1352086826607 50.33764411863406 0 0 0
7305 48 1 3.4822340568133643 24.575380302364888 49.79521475397602 0 -1 0
9281 61 1 4.573645210388563 18.42736583797625 51.698887135504165 0 0 0
8426 2 1 1.671206431550747 10.71699450496528 43.40222993589881 0 0 0
8898 44 1 2.840313268148168 15.560279250114714 48.55155511527913 0 0 0
1752 12 1 1.6491161273280623 15.810222773042844 37.035671019418885 0 0 0
9280 61 1 4.495676812525311 18.740750574594713 50.21710699501179 0 0 0
1772 45 1 18.0707128788641 14.053426588722218 50.69149213303211 0 0 0
314 6 1 16.284596087765788 22.928885004137804 48.72843390157858 0 -1 0
1146 9 1 18.897201019246317 5.344501243290878 52.034296533289805 0 0 0
381 6 1 7.264987885522142 2.653502078223441 39.20948504262566 0 0 0
8510 60 1 1.9040769042987982 12.414454828996938 48.39817220483208 0 0 0
7595 48 1 5.916708396274965 26.2741686090289 46.934441201800986 0 -1 0
7596 48 1 6.320147430494396 25.730926726679122 48.43617899121999 0 -1 0
7597 48 1 7.581777398416501 24.937572622537825 48.66483972946879 0 -1 0
7598 48 1 7.679634054675035 24.35304587107022 50.06259055540933 0 -1 0
7599 48 1 9.128393425306845 23.737279263992598 50.35648757369487 0 -1 0
7600 48 1 9.097519491912097 22.962171474781755 51.64914692018474 0 -1 0
7910 31 1 10.522882703508188 0.4368007052038841 52.055563523675794 0 0 0
3647 22 1 13.119315771368944 11.002136552322682 40.77501850385432 0 0 0
4190 24 1 16.503343289612967 16.547125675954277 39.82691838729307 0 0 0
848 8 1 13.756263630769316 2.962499602013979 50.973668048386465 0 0 0
3421 20 1 16.72513606884426 7.867132011566201 39.675452830308394 0 0 0
2591 1 1 17.186274121082683 24.094611943884587 39.56963394823526 0 -1 0
8432 2 1 6.296477372357812 7.703899988094782 48.37586453816728 0 0 0
9506 51 1 6.5574800439248255 20.563478237367395 48.460293320045494 0 0 0
9197 60 1 7.769295342732703 15.500856378236286 50.21464530729148 0 0 0
844 8 1 10.925037927276357 4.9378989430907945 47.58087497454216 0 0 0
8434 2 1 7.86908068594353 6.317229131509286 50.13603653022389 0 0 0
8897 44 1 2.0070435674978597 16.830260324098692 48.53853140386823 0 0 0
4721 29 1 17.593118574316588 20.002012153314595 39.7692277665791 0 0 1
8896 44 1 1.3883056125535793 16.815806276879762 47.110528476699784 0 0 0
7691 50 1 5.856513672196429 26.4016877384234 51.825192686147176 0 -1 0
8130 39 1 3.127354348099592 6.643113898857367 50.019971451025434 0 0 0
8435 2 1 9.24938529021249 6.139265098283322 50.66968873375891 0 0 0
7689 50 1 4.395761409415931 1.0040578159211682 50.22785536143286 0 0 0
8436 2 1 9.429622295271237 4.824169372678323 51.35287552445887 0 0 0
9191 60 1 3.3271625475421267 18.91782446533011 44.99474548268667 0 0 0
1999 14 1 14.296249376959324 15.059908493062466 51.49704083861819 0 0 0
4718 29 1 14.673999059822632 21.589192408919054 37.86291966825882 0 0 1
7601 48 1 10.364211778274612 22.205002124966466 51.922911690979014 0 -1 0
7902 31 1 5.029027371840088 5.652117420221923 45.699615075596306 0 0 0
7903 31 1 4.874277028398153 4.330059930617829 46.519706428169705 0 0 0
7904 31 1 5.957254060335981 4.263941975459985 47.5535045125759 0 0 0
7905 31 1 6.399658631236998 2.9097391264901247 48.18105320463512 0 0 0
7906 31 1 7.683116429568329 3.0668873778200014 48.97280501107311 0 0 0
8133 39 1 5.592236988144666 4.429084419158538 51.74527750678843 0 0 0
8812 57 1 4.744583477991579 14.37683445015441 45.59536490720924 0 0 0