LAMMPS data file via write_data, version 23 Jun 2022, timestep = 11111117

9706 atoms
2 atom types
9690 bonds
3 bond types
9674 angles
3 angle types
9658 dihedrals
3 dihedral types

0 36.89775039 xlo xhi
0 26.67072 ylo yhi
29.61670159009533 207.1349028098947 zlo zhi
0 5.585109136731437 0 xy xz yz

Masses

1 14
2 15

Pair Coeffs # lj/cut/omp

1 0.0914 3.95
2 0.1947 3.75

Bond Coeffs # harmonic/omp

1 449.5 1.53
2 449.5 1.53
3 449.5 1.53

Angle Coeffs # harmonic/omp

1 62.0967 114
2 62.0967 114
3 62.0967 114

Dihedral Coeffs # opls/omp

1 1.411 -0.271 3.145 0
2 1.411 -0.271 3.145 0
3 1.411 -0.271 3.145 0

Atoms # molecular

1 2 1 9.75309406890032 19.369143120127585 38.17671874029135 0 -1 0
2 2 1 9.222891933980709 18.691867968817043 39.43767558833023 0 -1 0
3 2 1 10.478780713956983 18.267913892019777 40.21997172201333 0 -1 0
4 2 1 10.196961986424323 17.876758077296785 41.727164097203925 0 -1 0
5 2 1 11.391543590754091 17.316217935102344 42.375295234829665 0 -1 0
6 2 1 12.603353442268205 18.259755756496823 42.54551375898541 0 -1 0
7 2 1 13.3071775476985 18.059748324090187 43.84733676494666 0 -1 0
8 2 1 14.31061234566983 19.152478792481723 44.21343081237127 0 -1 0
4406 24 1 17.99378982336351 15.068004222475167 30.362097936785876 0 0 0
9497 51 1 0.8577241231987668 18.41268953277756 35.52175905858953 0 0 0
7689 50 1 3.477879384170056 1.2309942000916958 42.59053101798815 0 0 0
8433 2 1 7.380197249784925 1.5815511461581837 43.758297337602 0 0 0
218 2 1 3.6841610848574513 20.1925404385363 33.099805408349674 0 -1 0
219 2 1 4.757848176156761 19.620557658100246 33.97016493663169 0 -1 0
220 2 1 5.686971835996545 20.72262244851008 34.44710243567083 0 -1 0
221 2 1 6.676506575844838 20.161032018340865 35.41973257022113 0 -1 0
222 2 1 7.759698422831926 21.273112990910512 35.4983129645975 0 -1 0
223 2 1 8.944114629814294 20.56794376407122 36.19818145666123 0 -1 0
224 2 1 8.550408460887835 19.778988062126803 37.3940741765525 0 -1 0
304 6 1 9.916644821869632 23.108182872365123 32.63560752268762 0 -1 0
305 6 1 11.004588458246179 24.071670201734538 32.80460368275225 0 -1 0
306 6 1 11.985589161556195 23.571936048027684 33.77015292443086 0 -1 0
307 6 1 11.32631681232324 22.904072380268662 34.944461408764 0 -1 0
308 6 1 12.390945992234931 22.367658794935178 35.85591481067292 0 -1 0
309 6 1 11.905600550983829 21.706914116859863 37.082911650452004 0 -1 0
310 6 1 13.14872025904857 21.120459947428785 37.72406413771063 0 -1 0
311 6 1 12.87755630782941 20.53409582609005 39.17460388719709 0 -1 0
312 6 1 13.98622102894823 19.841450086428818 39.92531218078207 0 -1 0
313 6 1 15.08055188571966 20.804546531196372 40.03266807347586 0 -1 0
314 6 1 15.699859173162272 20.525629832349853 41.414595209083274 0 -1 0
826 6 1 8.566422653099767 1.1192090501089802 32.004258952802765 0 0 0
8129 39 1 2.3071118648124536 5.31126162405042 42.88314260323225 0 0 0
614 6 1 17.053246160998523 26.268107149878073 42.53673878014686 0 -1 0
9279 61 1 2.0934628680418204 16.65532660463073 41.872340296865445 0 0 0
3201 19 1 17.335597164310865 0.43209180379612633 38.22842356738651 0 0 0
381 6 1 7.589729551743458 22.551450748228458 31.95080241454764 0 -1 0
382 6 1 8.715272334760122 23.594806011303216 31.904499943982028 0 -1 0
383 57 1 7.716857546826128 25.447385104795107 35.01486081274641 0 -1 0
384 57 1 8.98474264275727 25.050736091516598 35.67801255942721 0 -1 0
385 57 1 8.727050265631604 24.791089543236442 37.17811354243327 0 -1 0
386 57 1 9.619686934932547 23.995814599915498 37.963281155854865 0 -1 0
387 57 1 9.095537290928045 23.472219702527962 39.30006159957192 0 -1 0
388 57 1 10.32007941354062 23.001522043494386 40.079589644186385 0 -1 0
389 57 1 10.018963314296672 21.950263866340496 41.176061292046654 0 -1 0
390 57 1 11.331120226208665 21.62643077204221 41.85123688408189 0 -1 0
391 57 1 12.141298738316173 22.76381412935379 42.24169436514971 0 -1 0
392 57 1 13.023130817655709 22.484756655721437 43.47384277694448 0 -1 0
393 57 1 14.127486454314354 23.500173177474817 43.61847586854945 0 -1 0
4416 28 1 18.006599803381622 14.510886491088531 39.05588961469941 0 0 0
4103 28 1 11.666355059959697 13.093528618916375 30.238330157867754 0 0 0
8126 39 1 1.0177972947311944 3.386720392827983 39.844343031924495 1 0 0
602 57 1 2.254157576482429 23.40731423521616 32.44725637290396 0 -1 0
603 57 1 3.380288165656621 24.375170528452305 32.79557222836085 0 -1 0
604 57 1 4.2538421726663485 23.999913925018493 34.01406439205739 0 -1 0
605 57 1 5.203268069413685 25.169879321038948 34.34335040623427 0 -1 0
606 57 1 6.462104603472472 24.592043445803995 35.01641801513497 0 -1 0
607 6 1 12.938784811632825 0.12553117225302685 35.92839683196079 0 0 0
608 6 1 12.650214114743923 26.330699195437326 37.291462332074246 0 -1 0
609 6 1 13.547589042385196 25.39438349079135 38.03518572742631 0 -1 0
610 6 1 13.23497140789718 24.854464692809234 39.44170989855779 0 -1 0
611 6 1 14.496373157870922 24.338344430490103 40.13387164648104 0 -1 0
612 6 1 15.197256914608595 25.598206978236277 40.70718105878336 0 -1 0
613 6 1 16.292443046531407 25.175891176978496 41.71473393801608 0 -1 0
3721 22 1 12.893820111406702 7.891387752985299 30.84659742559523 0 0 0
7590 48 1 2.203011598558834 22.332637637626803 36.217848299427445 0 -1 0
4484 28 1 10.798187033399326 16.561465954065334 29.967894438684425 0 0 0
1771 45 1 18.59020178456317 13.16659135943633 44.2258582501521 0 0 0
8127 39 1 1.205018402422835 4.518396445008173 40.81052715393676 1 0 0
380 6 1 6.632550714694565 22.958017057241957 30.934997040793967 0 -1 0
8894 44 1 1.4685929808343088 12.535681965351973 40.42775423679056 0 0 0
827 6 1 9.762385288058825 0.6343557003751776 32.79192241317361 0 0 0
828 6 1 10.784426446182215 1.745313057148178 33.14434005939763 0 0 0
829 6 1 11.819026997376865 1.100260599399732 34.078728327705356 0 0 0
830 6 1 11.49501196432937 0.41049941143799995 35.35424321077046 0 0 0
831 8 1 2.751284016494834 0.9300202609393723 32.600091124505916 0 0 0
832 8 1 3.2419250686872205 2.2490924056079016 33.16367314864414 0 0 0
833 8 1 4.628513205054005 1.851667166864961 33.722824934166994 0 0 0
834 8 1 5.521096197109568 2.942000391838887 34.32090481759074 0 0 0
835 8 1 6.77188320657682 2.5096848569915804 35.00126501365575 0 0 0
836 8 1 7.867022908559386 3.4451638698126152 35.389413474179676 0 0 0
837 8 1 8.964033949796459 2.713217593181739 36.069109552004335 0 0 0
838 8 1 8.537604972966244 2.027447446338951 37.407833079677786 0 0 0
839 8 1 9.556733565434133 1.3000107523983016 38.212738298636566 0 0 0
840 8 1 9.32756447776228 0.9003014186763505 39.63087304389758 0 0 0
841 8 1 10.631027226504559 0.4660880892216764 40.269712989623656 0 0 0
842 8 1 10.41989259147476 26.585115603061293 41.63265736096488 0 -1 0
7687 50 1 2.165226255599261 0.025983794838749807 40.92967610997114 0 0 0
1546 12 1 15.37720699255234 9.838053457122452 45.91058662236047 0 0 0
8900 44 1 4.887835274799482 12.805416153618797 46.751258170957904 0 0 0
4407 28 1 13.059018567401367 17.05746349776619 30.980248881826203 0 0 0
8510 60 1 3.130520583586875 9.011898385381006 42.393496335753916 0 0 0
9278 61 1 1.4094375840932174 17.292732183608464 40.70138520175483 0 0 0
7305 48 1 3.2550877653341277 22.911646882935276 44.75452294845954 0 -1 0
1134 9 1 13.128249318862121 2.693952103481354 39.516354767401815 0 0 0
1135 9 1 14.554117470136017 2.30910622374334 39.95516510128095 0 0 0
1136 9 1 15.453701703751738 3.385172362505679 40.647453309339895 0 0 0
1137 9 1 16.535629770550695 2.966382397459053 41.64198335746122 0 0 0
1138 9 1 17.184232408200618 4.134561416024426 42.4001153249889 0 0 0
8509 60 1 1.67972532668274 8.795976633295066 41.95925548764491 1 0 0
7300 48 1 0.6433688654130963 21.052403259249857 39.66846093390034 0 -1 0
1752 12 1 1.545732139914244 11.381192218937857 30.747131436461352 0 0 0
1463 11 1 18.005389987578106 8.036356009402143 42.810767225078116 0 0 0
2300 14 1 18.57279353554704 17.961351910395724 44.12081503927965 0 0 0
7302 48 1 2.606117306447227 21.336302478631914 41.19156593546856 0 -1 0
3418 19 1 13.993190307514299 4.575739699666436 31.116675375965126 0 0 0
2371 16 1 15.96573684098847 20.890816800056154 33.411226052857074 0 -1 0
7604 48 1 12.635609215385367 20.4145817250564 47.24448075779877 0 -1 0
1209 9 1 11.509024426048382 4.658917657057501 35.08807900949447 0 0 0
1210 9 1 12.614772251468322 4.103951167027526 35.93193740481842 0 0 0
1211 9 1 12.08060291832681 3.6288366924791546 37.247594196661844 0 0 0
1212 9 1 13.235117974820035 3.5117512374396878 38.259713626338815 0 0 0
1213 61 1 9.303210138141445 5.3101860027918395 39.364566567281756 0 0 0
1214 61 1 10.274773671646248 5.187950167547684 40.537032729893745 0 0 0
1215 61 1 10.212232527707913 3.856158378823408 41.27570988048135 0 0 0
1216 61 1 10.92810875732535 4.031598130881364 42.61970930376429 0 0 0
1217 61 1 12.419423394039743 4.432979640110493 42.55612039636871 0 0 0
1218 61 1 12.812260112517267 4.892478235274376 43.888380002169335 0 0 0
1219 61 1 14.201833301941468 5.345191947681155 43.94686620839153 0 0 0
1220 61 1 14.676599502321974 5.822730166490431 45.33168615457158 0 0 0
1221 61 1 16.13148849352325 6.1896610105042695 45.50741552526473 0 0 0
8898 44 1 4.372203371882534 13.492101396924717 44.37351906941883 0 0 0
1995 14 1 14.647612742921462 14.235635087273286 45.13221221418739 0 0 0
7592 48 1 3.4619783707597342 22.793181609788565 38.31691942931539 0 -1 0
4414 28 1 16.400144462487386 14.117638640460367 37.044104972266936 0 0 0
1286 61 1 5.630671289467288 7.441133049129047 34.58018001315985 0 0 0
1287 61 1 7.019206689721324 7.002092877941857 35.168769623833015 0 0 0
1288 61 1 7.86639711063069 8.09908264455335 35.56664959434938 0 0 0
1289 61 1 9.148200969777434 7.5845244340686016 36.15941291175586 0 0 0
1290 61 1 8.746148260295223 6.52132883258866 37.19044470781284 0 0 0
1291 61 1 9.66009856895375 6.332714625452195 38.36206799674986 0 0 0
1456 11 1 12.46223982775328 7.977692882549902 37.027091960368146 0 0 0
1457 11 1 13.604861755990955 7.509713268277285 37.843044569160185 0 0 0
1458 11 1 13.066454340086297 6.855807271040934 39.0974743612787 0 0 0
1459 11 1 13.999789605043715 6.677887758126015 40.20627802501764 0 0 0
1460 11 1 14.95028067592087 7.827897229326108 40.617720491814936 0 0 0
1461 11 1 16.13599120002186 7.256449879495398 41.266894846660165 0 0 0
1462 11 1 16.639411747694332 8.327658425087263 42.17504187930209 0 0 0
7914 31 1 12.299950955833973 25.52700648767512 46.50775811732098 0 -1 0
7692 50 1 4.129683579341048 26.36645964428555 45.919155002968594 0 -1 0
8805 57 1 4.681262968644625 8.999838346067644 37.573189431585085 0 0 0
7308 48 1 6.5619702468618035 21.81362026209897 46.486082110457744 0 -1 0
4033 28 1 17.310110071950977 9.116299318160591 38.03883850303713 0 0 0
8128 39 1 2.5474247984537195 4.606938126128672 41.566919988481445 0 0 0
1455 10 1 8.475812346790722 9.857771563272259 32.223376647306154 0 0 1
2299 14 1 18.044618840630022 16.964143271118495 43.0925555078967 0 0 0
7902 31 1 4.149650568408767 0.8791795807669299 38.04464805790834 0 0 0
1533 11 1 11.64028402923013 9.561382456902564 34.99642396718322 0 0 0
1534 11 1 12.764723791935534 8.798958696720133 35.69865129176193 0 0 0
1535 12 1 7.903652380001086 12.123072122465336 35.283808369140495 0 0 0
1536 12 1 9.026277006703724 11.52113375566351 36.141595896789134 0 0 0
1537 12 1 8.706716990776874 10.9044262629302 37.54068232607783 0 0 0
1538 12 1 9.955865414601226 10.527567607779122 38.45093484807172 0 0 0
1539 12 1 9.543247501250802 9.780012088611764 39.73178421938039 0 0 0
1540 12 1 10.763300227149498 9.27503008126962 40.54473067674221 0 0 0
1541 12 1 10.443018844920246 8.739654771560938 41.94048346232688 0 0 0
1542 12 1 11.708855211909947 8.20464322172104 42.53320876365777 0 0 0
1543 12 1 12.684147565582899 9.28563730833063 42.926353792118945 0 0 0
1544 12 1 13.63402705191286 9.083050478705292 44.106483543864854 0 0 0
7900 31 1 2.429946400597798 26.655904276179562 36.38761102719901 0 -1 0
1285 61 1 4.612799588785234 6.383501091022851 34.114394207968516 0 0 0
8815 57 1 10.960800011030427 7.33814463826164 45.958447843967924 0 0 0
2890 9 1 13.239107193246648 25.912100910950645 31.043113805161028 0 -1 0
1754 12 1 2.7388926966243186 9.982874043784845 32.554087578005 0 0 0
1755 12 1 3.292065158233684 11.290871889640446 33.13022117542004 0 0 0
1756 12 1 4.332353042756061 10.935224976542221 34.235012141343496 0 0 0
1757 12 1 5.421219196601514 11.937608012753207 34.45841416206852 0 0 0
1758 12 1 6.627872161474657 11.279251530233987 35.04527941270725 0 0 0
1759 45 1 10.861822575873248 15.437513572803704 33.28919556810844 0 0 0
1760 45 1 12.057322589238634 14.87382587577004 33.933724527827394 0 0 0
1761 45 1 11.755574727827803 14.204290430804148 35.277857560445206 0 0 0
1762 45 1 13.018410194368942 13.722103210148187 35.94631508118859 0 0 0
1763 45 1 12.590402432587938 12.850260719959032 37.09100954964485 0 0 0
1764 45 1 13.715562735618974 12.288417097085402 37.92064451232736 0 0 0
1765 45 1 13.26612636021928 11.62484350049892 39.18907404754698 0 0 0
1766 45 1 14.381091003569075 11.09129767573319 40.11993536092051 0 0 0
1767 45 1 14.942077532060281 12.153550948619538 40.90572152094809 0 0 0
1768 45 1 16.18595052733694 11.663714887107819 41.68101302293947 0 0 0
1769 45 1 16.79422152662021 12.772944155851988 42.41533060645556 0 0 0
8804 57 1 3.400026949026241 9.444485773956838 38.292687773207355 0 0 0
1770 45 1 18.07048074900331 12.309229156072625 43.03298796917616 0 0 0
9277 61 1 0.8636627653632332 16.25208764525186 39.78921370019049 0 0 0
6249 52 1 0.9792662878570397 11.8367619099624 46.3621626402215 0 0 0
1980 45 1 7.624357914128843 13.414063620180606 32.0358864418386 0 0 0
1981 45 1 8.615126346405447 14.551555401175856 32.415390603206816 0 0 0
1982 45 1 9.91830517695401 14.178083525214527 33.07655098927995 0 0 0
1983 14 1 6.805067253524654 15.730693558547497 35.31063256068077 0 0 0
1984 14 1 7.861563183151268 16.76718401920519 35.32524630745862 0 0 0
1985 14 1 9.065039515063292 16.455729526511934 36.09534464462837 0 0 0
1986 14 1 8.67898579289111 15.432535214801069 37.10492726563358 0 0 0
1987 14 1 9.730179309039581 15.288518309164095 38.20852381215452 0 0 0
1988 14 1 9.274093946355022 14.380613251247125 39.29519983963091 0 0 0
1989 14 1 10.384477955026613 13.668970803366268 40.04058293885961 0 0 0
1990 14 1 10.009455870266198 13.052367463559019 41.3398828077643 0 0 0
1991 14 1 11.225354819556927 12.519596203802246 42.076432666864264 0 0 0
1992 14 1 12.113597801199493 13.683675543231239 42.43677044182768 0 0 0
1993 14 1 13.192172031260661 13.394739076533844 43.50256602326916 0 0 0
1994 14 1 13.938158724932707 14.604840408905888 43.83851548627014 0 0 0
1530 11 1 9.779508601578916 9.582346954981064 32.97789425274117 0 0 0
846 8 1 14.291664351632038 1.770287925847929 44.25879441057536 0 0 0
2202 14 1 1.3384175019481959 14.989450087061343 32.138293771170005 0 0 0
2203 14 1 2.676464231310015 14.786407777514658 32.81548607043395 0 0 0
2204 14 1 3.220141411155141 15.957337277174673 33.63477708160574 0 0 0
2205 14 1 4.473670991097333 15.537473109764576 34.31127605807964 0 0 0
2206 14 1 5.550320321507008 16.49803861158521 34.72479903390604 0 0 0
2286 14 1 8.687874356284778 19.019640003901454 32.24599080566284 0 0 0
2287 14 1 9.773454355469678 18.85713179258615 33.342181860364185 0 0 0
2288 14 1 10.970785867006605 19.858027964616873 33.31225313105242 0 0 0
2289 14 1 12.239104719310323 19.348195051828977 34.12515660012425 0 0 0
2290 14 1 11.943126153145 18.551806762731236 35.413889474744984 0 0 0
2291 14 1 13.189128188149017 18.033611374809897 36.28226321942668 0 0 0
2292 14 1 12.6063575389402 17.077745817044633 37.355775562746004 0 0 0
2293 14 1 13.68704774256393 16.64305269468977 38.29349506374771 0 0 0
2294 14 1 13.090942525827153 15.798083943302371 39.35748056477006 0 0 0
2295 14 1 14.172806089567436 15.320341434774402 40.25818186161911 0 0 0
2296 14 1 15.129420377185173 16.444492948346703 40.66893183954119 0 0 0
1978 45 1 5.395960680631889 12.886359958488605 30.8539788729335 0 0 0
2594 1 1 18.20859024400622 24.27984051663935 30.549353002898275 0 -1 0
2370 16 1 14.765753129158032 21.3836689499127 32.725150445881674 0 -1 0
3649 22 1 16.04381081607671 5.01455728608461 36.65863845340659 0 0 0
2200 14 1 0.4564129652106317 15.971548845994482 29.95416642766338 0 0 0
2363 14 1 6.573353410674664 18.31093018601741 31.232681117150737 0 0 0
2364 14 1 7.715397872121286 17.875945784288902 32.02094711988761 0 0 0
1128 35 1 5.448729603236042 3.811501272191657 30.841664690084666 0 0 1
1375 54 1 2.806067413411809 5.58550255599865 32.827288359630714 0 0 1
2819 9 1 17.384295455054627 22.40016128410541 38.07412054045574 0 -1 0
4025 28 1 12.85817876700668 12.71957699136791 31.056542844652377 0 0 0
848 8 1 16.06619004771574 2.4000203227958883 45.94687152048038 0 0 0
1464 11 1 18.15907848293904 8.88219024063774 44.10817103927024 0 0 0
849 8 1 17.047925365870363 1.882992304455456 46.910354482502065 0 0 0
217 17 1 2.893267709077274 18.98372255888009 32.753572819458874 0 -1 1
394 57 1 14.897209275753806 23.19002894058922 45.00736306563868 0 -1 0
1977 53 1 4.343115423236671 13.466689027156823 29.94210300468698 0 0 1
2373 16 1 16.86627506306985 20.040819739929518 35.57671337827208 0 -1 0
601 57 1 0.9932207389227898 23.92699826537515 31.746646027677038 0 -1 0
2374 16 1 16.430215351980983 19.134281783184033 36.67717446746655 0 -1 0
379 6 1 5.408368989889986 22.10952803164105 30.660813891360018 0 -1 0
2813 9 1 15.379824215159077 26.336676599899253 31.997047682865674 0 -1 0
2814 9 1 15.043603629885656 25.31403394671524 33.1412010155691 0 -1 0
2815 9 1 16.078049210617923 25.3197408964537 34.206534168358345 0 -1 0
2816 9 1 15.547626364907671 24.320726844795526 35.26309821452596 0 -1 0
2817 9 1 16.73430997905253 23.86379993739145 36.12512103227665 0 -1 0
2818 9 1 16.287594587291668 22.982570683382068 37.23394369616755 0 -1 0
9512 51 1 12.773527671007958 16.553423003907408 47.02047184482849 0 0 0
2375 16 1 17.639306044416998 18.768843125295938 37.486950344202775 0 -1 0
616 6 1 18.651529807475256 0.30723053010407286 44.39203495253656 0 0 0
2891 9 1 14.233351351367938 0.31834118781597825 31.268143014407897 0 0 0
2376 16 1 17.413102755308795 18.107925536926075 38.842143273232594 0 -1 0
1208 9 1 12.02290090259784 5.4427256267422575 33.91833067926635 0 0 0
1452 10 1 5.455039214850283 8.105722210625842 30.65401549004435 0 0 1
2368 16 1 13.712124097531683 22.522696385823046 30.9637979215798 0 -1 0
3195 19 1 15.27686041458418 4.210857715527268 31.905177695271625 0 0 0
3196 19 1 15.049690759356023 3.2069883686711704 32.925904898716965 0 0 0
3197 19 1 16.208295986386254 2.5416255397056173 33.724718853115185 0 0 0
3198 19 1 15.877129677821925 2.0036226795554524 35.09325284348586 0 0 0
3199 19 1 16.988966920076614 1.6074802111786917 36.01286968568789 0 0 0
3200 19 1 16.363921977070916 0.923689191744803 37.18795918002145 0 0 0
7912 31 1 10.255837506980832 24.70010575381239 45.23036883679893 0 -1 0
2298 14 1 16.82217071060679 17.283870542735954 42.26611491131604 0 0 0
2820 9 1 17.983530236794103 23.54502646613041 38.90979416715938 0 -1 0
1979 45 1 6.51644840146855 13.875928056215495 31.105641195346482 0 0 0
3642 20 1 17.902365836319685 6.912263310718699 30.575540735299104 0 0 0
7603 48 1 11.654325968567527 20.6427819969237 46.11418045572465 0 -1 0
317 6 1 18.503204365193614 22.16204563616369 43.532309537116035 0 -1 0
9280 61 1 2.97544004274523 17.668817331401495 42.47519287848159 0 0 0
3643 22 1 14.018657592112486 8.91566439971973 30.859303248038394 0 0 0
3644 22 1 14.8195131380809 9.065221003502154 32.100437626736884 0 0 0
3645 22 1 14.890012533271431 7.663427201942575 32.6414344732461 0 0 0
3646 22 1 15.68923504669848 7.709323627855398 33.91730236943351 0 0 0
3647 22 1 15.53293172180619 6.370013487663984 34.559666111232985 0 0 0
3648 22 1 16.461372043555674 6.168248456459596 35.694359831873726 0 0 0
600 57 1 1.3952820107324178 24.66028742770923 30.45744406584147 0 -1 0
3652 22 1 18.57329143881994 4.961203543038591 39.49064052100334 0 0 0
1132 35 1 9.96671895033937 5.010222474343818 32.85519850904812 0 0 1
1373 54 1 1.873549748328882 6.311710934389632 30.652919197935837 0 0 1
7588 48 1 0.34421911756409784 21.630426206533812 34.60580176518422 1 -1 0
2362 14 1 5.658423772221183 17.206923462554737 30.81402121486588 0 0 0
1996 14 1 15.795955514924195 15.184286584180345 45.47664702663027 0 0 0
847 8 1 15.427372792352394 1.2634299988791684 45.214087319837354 0 0 0
1130 35 1 7.835602808278533 4.374678636537553 31.62805172293324 0 0 1
4026 28 1 14.0385401075333 13.713157903024143 31.115857430072317 0 0 0
4027 28 1 15.222750522933092 13.128985668687175 31.85800957319997 0 0 0
4028 28 1 14.787478962940462 12.485910043613302 33.15531523879416 0 0 0
4029 28 1 15.97069538232354 11.778515969680534 33.93664221673065 0 0 0
4030 28 1 15.564794783987159 10.845935308012969 35.07082337270368 0 0 0
4031 28 1 16.752273377729402 10.628685778822001 36.05052906371349 0 0 0
3650 22 1 17.149956891572014 4.545960565044626 37.56811012774048 0 0 0
1532 11 1 12.085375995375895 10.320844359680097 33.74025052903598 0 0 0
7688 50 1 2.4709658131827466 0.1617686307588222 42.424508579022834 0 0 0
2361 14 1 4.516342591247625 17.807243085290093 29.927173749403952 0 0 0
7686 50 1 1.099993057227004 25.68172027429479 40.62742984406077 0 -1 0
7303 48 1 2.8012818193360443 21.438164173461715 42.71719157523245 0 -1 0
823 5 1 5.56124495040905 25.868346288990118 30.35579449038078 0 -1 1
8133 39 1 5.1322903560215 3.88850453122476 46.39365680582321 0 0 0
4408 28 1 14.211307849300397 17.987539567841615 30.986827307801967 0 0 0
4409 28 1 15.46673866655177 17.44829673284838 31.663786497967873 0 0 0
4410 28 1 15.180171208493599 16.582453693389784 32.966460130361924 0 0 0
4411 28 1 16.252990357660817 16.126407671035096 33.8675951460065 0 0 0
4412 28 1 15.831182097301937 15.934503652534502 35.324392843229134 0 0 0
4413 28 1 16.81141740984204 15.383064096164563 36.35220026802147 0 0 0
8899 44 1 4.4135459084030835 13.92302543151504 45.77815540078807 0 0 0
3651 22 1 17.696245118643805 5.648177966551885 38.41423727987856 0 0 0
8513 60 1 3.6066320314046734 9.291273009927899 46.187807621209835 0 0 0
2970 46 1 11.178001688511085 25.350076033794835 29.72856024601338 0 -1 1
2889 9 1 12.280310877858009 26.386102139040617 29.93426167830454 0 -1 0
8134 39 1 6.280917140734607 4.1906372598762305 47.327752703547475 0 0 0
1545 12 1 14.418252564076708 10.201526860619671 44.72856662064187 0 0 0
2366 16 1 11.573305776056918 21.958980363193067 29.882363454120767 0 -1 0
2372 16 1 15.634678110442598 20.161674042372912 34.75465273205706 0 -1 0
1454 10 1 7.419192143125591 8.79131841157474 32.01650660957772 0 0 1
9284 61 1 4.944469387723615 17.35773782657945 46.16517188125914 0 0 0
9509 51 1 9.879288604693462 14.767890283580897 45.11732400406525 0 0 0
4032 28 1 16.198755636548654 9.73383004334302 37.152153465909706 0 0 0
8131 39 1 3.1333170973949813 5.209795585249684 45.28054884204967 0 0 0
214 17 1 0.9096240358697666 20.453816424944794 30.031486500263227 0 -1 1
8436 2 1 10.589808820315591 1.8465395511671217 45.63235994254095 0 0 0
1133 35 1 10.929177710566684 6.130393949517427 33.157957494380426 0 0 1
2367 16 1 12.770035397501426 21.375090735118118 30.597661854719288 0 -1 0
1053 8 1 1.5798987397855702 2.2069791494822595 30.814161965011277 0 0 0
7304 48 1 2.7368037918137964 22.910397309872753 43.30101717905029 0 -1 0
378 6 1 4.4067480047307575 22.655450881573092 29.745776036930774 0 -1 0
1127 35 1 4.418434195474872 3.9133791365496577 29.728609813138487 0 0 1
1451 10 1 4.33095499867733 8.40163681887475 29.696609397318863 0 0 1
8130 39 1 3.3971037510221924 4.83371901861729 43.82769917722571 0 0 0
7691 50 1 3.657276563481118 26.593426043168993 44.52458273246616 0 -1 0
7593 48 1 4.776484890776562 22.618521001959948 37.61941435494604 0 -1 0
7594 48 1 5.876507719118167 22.175466736520015 38.55340952176744 0 -1 0
7595 48 1 5.5463563880555835 20.98602835352101 39.428778366783575 0 -1 0
7596 48 1 6.615582754930305 21.070453937558824 40.438492960861915 0 -1 0
7597 48 1 6.202929667667213 20.033860331006323 41.513689739487106 0 -1 0
7598 48 1 7.321842662305673 20.087430040285387 42.569501320939324 0 -1 0
7599 48 1 7.212320646636265 19.384129252984643 43.967902147380734 0 -1 0
7600 48 1 8.550128691999872 18.922930192888863 44.57294274403007 0 -1 0
7601 48 1 9.438563641239721 19.982703590394465 45.07425702344171 0 -1 0
7602 48 1 10.629500138597017 19.469660862681522 45.8769006786318 0 -1 0
8508 60 1 1.4609378057111635 8.000353950287419 40.61024636469669 1 0 0
4485 28 1 11.862265438660721 17.63598811195785 30.18010070326647 0 0 0
8512 60 1 2.890644882166278 9.457749943375052 44.855373543949085 0 0 0
8895 44 1 1.7241594577622703 13.26756329517757 41.69462567687478 0 0 0
9200 60 1 10.401809041181263 10.726378389625483 46.11150840355055 0 0 0
2297 14 1 16.25134595326114 16.08343792461303 41.50133993624844 0 0 0
1453 10 1 6.298630680479945 9.312332967706764 31.122983501420773 0 0 1
1129 35 1 6.464935929105654 4.874846750071629 31.13773730499205 0 0 1
7690 50 1 3.8859828136658936 1.2929618520319863 44.009300827287674 0 0 0
8800 57 1 0.19839363178606284 8.157860785304813 34.55079397596526 1 0 0
396 57 1 16.682166172065255 23.80740516573399 46.682599757989905 0 -1 0
9505 51 1 5.9009156403004726 15.649270791249432 41.92155075760729 0 0 0
8434 2 1 8.73204352131148 1.090136284878064 44.34610882056718 0 0 0
315 6 1 16.767697330229918 21.579513446565638 41.8512908854791 0 -1 0
7903 31 1 5.362393075868668 0.24255716544585387 37.38042092770719 0 0 0
7904 31 1 6.206031088531687 26.530947452671978 38.65472794973993 0 -1 0
7905 31 1 5.559573308294865 25.602031928892917 39.65286900924228 0 -1 0
7906 31 1 6.243694938137993 25.730148532507787 40.99831336004952 0 -1 0
7907 31 1 5.821484134832142 24.892930916807398 42.15423350191172 0 -1 0
7908 31 1 6.867266309066421 23.850635004257718 42.55515756851658 0 -1 0
7909 31 1 7.903718397717424 24.439501000017064 43.44414997351714 0 -1 0
7910 31 1 8.637560355393925 23.27389412476179 43.96790191435248 0 -1 0
7911 31 1 9.47683707749765 23.42826014752521 45.214012709322205 0 -1 0
8435 2 1 9.264650358650831 2.2948286585313107 45.102824550866245 0 0 0
844 8 1 12.481476682338279 1.103507180759177 42.5255677175187 0 0 0
1131 35 1 8.722723271732637 5.413511537545236 32.170783885015766 0 0 1
1054 8 1 1.3401656963287232 1.3169451925944522 32.03709031579504 0 0 0
9498 51 1 1.9583401780295169 18.079986351676283 36.55912292034077 0 0 0
3194 19 1 18.02573595724759 2.456529405506805 30.54141894561314 0 0 0
1376 54 1 3.4356018415645266 6.868901153133382 33.2922370321923 0 0 1
8803 57 1 2.3352704548715906 9.914695042882324 37.34917976210808 0 0 0
9510 51 1 10.722403423027346 16.01139779637518 45.413850454704686 0 0 0
9198 60 1 8.274084403737586 10.001286707354524 44.78945730420848 0 0 0
1222 61 1 16.34685212129891 6.521353947277563 46.986902742007686 0 0 0
1374 54 1 1.5703799536893746 5.5225598711477275 31.87367658301161 0 0 1
9186 60 1 0.323792947297322 12.850594702726504 34.828317841329344 0 0 0
8423 2 1 0.9850657424029865 4.848427258586633 35.455266883184755 0 0 0
216 17 1 1.5895919704454315 19.063869345678796 31.919298552940475 0 -1 1
2201 14 1 1.6509815960327359 15.76745451920852 30.892625518171446 0 0 0
4970 33 1 0.7004285451237788 25.69192050269724 46.969395383892845 0 -1 0
8425 2 1 2.4761365816669487 5.668176116383958 37.25524463452574 0 0 0
8426 2 1 3.652295183438749 5.489664019534044 38.231560814514005 0 0 0
8427 2 1 4.8490628499244135 4.807320724880847 37.59839576511156 0 0 0
8428 2 1 5.878187744491345 4.490833802050016 38.691516725187626 0 0 0
8429 2 1 5.486154498606189 3.5909984812010736 39.82011338129778 0 0 0
8430 2 1 6.70933189727062 3.478303908315286 40.67827056191968 0 0 0
8431 2 1 6.31490474695456 3.203217960615878 42.122670941028204 0 0 0
8432 2 1 7.5479379682553445 2.612296337387568 42.681219853312456 0 0 0
7306 48 1 4.507551278949522 22.092282296467456 44.997511973927175 0 -1 0
8802 57 1 1.9394902666604166 8.92374784545457 36.28465542767703 0 0 0
7591 48 1 2.541358387617711 23.40187386320082 37.288105459277496 0 -1 0
615 6 1 18.287049278415772 25.87408959029895 43.36407907299482 0 -1 0
9188 60 1 2.146339681885509 13.43660804005882 36.399937275565186 0 0 0
9504 51 1 6.495872698541841 16.497985713537336 40.845815013952674 0 0 0
8514 60 1 4.985370358432062 8.732359637116657 46.101606467418165 0 0 0
4643 22 1 18.18182768988413 20.00283261542594 31.048567884131682 0 0 0
7898 31 1 0.3531403174022143 25.987563547348955 34.97688797389662 1 -1 0
9187 60 1 0.9144273419914349 13.911611892401938 35.6985665717179 0 0 0
8901 44 1 6.239726883647702 13.229585900175083 47.35202988698235 0 0 0
316 6 1 17.527554707792373 21.08506018732905 43.034666378008595 0 -1 0
6632 55 1 0.6398009023542401 15.954039097892938 46.42646183071185 0 0 0
8437 2 1 11.295407759494859 2.9111740643577777 46.39381282986536 0 0 0
1997 14 1 16.472842882298437 14.951682364005839 46.82298408763755 0 0 0
8806 57 1 5.7556422624741375 8.794194722937407 38.60066365963421 0 0 0
8807 57 1 5.32601413342366 7.967795983677073 39.83100200448034 0 0 0
8808 57 1 6.3074335624275975 7.917722544556682 40.839015879603835 0 0 0
8809 57 1 5.818912359101697 6.978818582765896 41.97269592776319 0 0 0
8810 57 1 6.9874009771995675 6.768619837388208 42.841658983807484 0 0 0
8811 57 1 6.699218205796741 5.927936644982182 44.03758247759974 0 0 0
8812 57 1 7.980588143100189 5.511970438207847 44.61992574493134 0 0 0
8813 57 1 8.95703317718713 6.620352495976615 44.64642002118971 0 0 0
1753 12 1 1.5560149576908298 10.148381409868902 31.589610344552952 0 0 0
7693 50 1 5.694480480619832 26.17944251587089 45.84637919581411 0 -1 0
2369 16 1 15.04836277939013 22.204486848424782 31.485253757625696 0 -1 0
395 57 1 16.059837039211075 24.085602348194808 45.260670698140665 0 -1 0
4415 28 1 17.318131868801235 13.486596800509364 38.160413004385816 0 0 0
7301 48 1 1.1691874580232648 21.613784146053113 40.958536703147914 0 -1 0
7307 48 1 5.155215706817966 22.385165734167106 46.305038020891836 0 -1 0
9499 51 1 2.708599754463696 19.198180597761084 37.269185598223 0 0 0