LAMMPS data file via write_data, version 29 Oct 2020, timestep = 32000000

10752 atoms
2 atom types
10752 bonds
3 bond types
10752 angles
3 angle types
10752 dihedrals
3 dihedral types

-1.4019591925125496e-01 3.1008115919238300e+01 xlo xhi
-1.2113307625790526e-01 2.6791853076229280e+01 ylo yhi
 3.6793788888234388e+01 2.4620557111101775e+02 zlo zhi

Masses

1 14
2 15

Pair Coeffs # lj/cut/omp

1 0.0914 3.95
2 0.1947 3.75

Bond Coeffs # harmonic/omp

1 449.5 1.53
2 449.5 1.53
3 449.5 1.53

Angle Coeffs # harmonic/omp

1 62.0967 114
2 62.0967 114
3 62.0967 114

Dihedral Coeffs # opls/omp

1 1.411 -0.271 3.145 0
2 1.411 -0.271 3.145 0
3 1.411 -0.271 3.145 0

Atoms # molecular

1            1            1      6.80054      24.5769      38.5158
2            1            1      7.99739      24.4637      39.5271
3            1            1       8.8572      25.7051      39.5156
4            1            1      9.65088      25.6146      40.7449
5            1            1      9.56316      24.2889      41.4387
6            1            1      10.2102       24.469      42.7448
7            1            1      9.79843      23.6223      43.9366
8            1            1      11.0539      23.1726      44.7191
9            1            1      10.6555      22.2863      45.9035
10            1            1      11.7613       21.717      46.6954
11            1            1      11.2537       20.757      47.7508
12            1            1      12.4926      20.3689      48.5383
13            1            1      12.0539      19.3293      49.5476
14            1            1      10.8988      19.9909      50.2589
15            1            1      10.2547      19.2196      51.3858
16            1            1      9.15946      19.8863      52.3349
17            1            1      8.54649      18.8429      53.2308
18            1            1       8.0309      19.3745      54.5146
19            1            1      7.32149      18.4011       55.421
20            1            1      6.39976      19.0897      56.3458
21            1            1      6.95639      20.1888      57.1734
22            1            1      5.85795      20.4027      58.2195
23            1            1      6.25436      21.4043      59.2264
24            1            1       5.0532      21.3872      60.1949
25            1            1      4.92132      22.5559      61.1256
26            1            1      3.74268      22.4244      62.0261
27            1            1      4.02191      23.5931      62.9397
28            1            1       3.1769      23.7051      64.2916
29            1            1      3.44675      24.8444       65.254
30            1            1      4.85554      24.9379      65.7821
31            1            1      5.07221      26.1423      66.7007
32            1            1       6.2152       25.868      67.6963
33            1            1      5.80278      24.7666      68.5974
34            1            1      6.84596      24.3144      69.6513
35            1            1       6.3673      23.3734      70.7249
36            1            1      7.56328      23.0337      71.5786
37            1            1      7.38259       22.103       72.714
38            1            1      8.55404      21.9529      73.6364
39            1            1       8.1538      20.9123      74.6706
40            1            1      9.31028      20.6036      75.5266
41            1            1      9.86983      21.7312      76.2779
42            1            1      11.3398      21.5634        76.61
43            1            1      11.5957       22.973      77.2192
44            1            1      10.7798      22.9797      78.4479
45            1            1      10.9955      24.2805      79.2653
46            1            1      9.87248      24.2501      80.2968
47            1            1      10.0623      23.0578      81.1981
48            1            1      8.94729       22.905      82.2076
49            1            1      9.32294      24.0872      83.1231
50            1            1      8.25166      24.3477      84.1158
51            1            1      8.22665      23.1901      85.0323
52            1            1       6.9641      23.1992      85.8557
53            1            1       7.0869      22.0534      86.8597
54            1            1      5.82028      22.0304      87.7344
55            1            1      5.68008      20.8128      88.6417
56            1            1      4.63976      21.2248      89.6663
57            1            1      5.32118      22.1687      90.6042
58            1            1      4.19119      22.3088      91.6563
59            1            1      3.61575      20.9266      91.8694
60            1            1      2.31937      21.0908      92.6138
61            1            1        2.536      22.1167      93.7252
62            1            1      1.19101       22.208      94.3857
63            1            1      1.37737      23.2263      95.4253
64            1            1     0.711518       23.008      96.7309
65            1            1     0.585772      24.3039      97.5442
66            1            1       30.827       23.864      98.6069
67            1            1      30.4824      25.0854       99.418
68             1             1       29.4744       24.8325        100.48
69             1             1       29.4786        26.163       101.282
70             1             1       28.5876       25.9563       102.452
71             1             1       28.9786      0.167308       103.388
72             1             1       28.1924     -0.019529       104.682
73             1             1       28.3499       1.35672       105.462
74             1             1       27.5703       1.49777       106.674
75             1             1       28.3684       2.30687       107.718
76             1             1       27.3421        2.5976       108.826
77             1             1       27.7867       3.38988       110.016
78             1             1       26.7936       3.91276       111.022
79             1             1       27.4114       4.88613       111.952
80             1             1        26.409       5.34096       112.907
81             1             1       25.5626       4.25932       113.662
82             1             1       24.9551       4.71282       114.968
83             1             1       24.6701       6.16914       115.141
84             1             1       24.0787        6.4673       116.452
85             1             1        23.648       5.13358       117.036
86             1             1       22.8377       5.46848       118.236
87             1             1       22.6445       4.28678       119.291
88             1             1       21.4173       4.23354       120.123
89             1             1       21.5465       3.11764       121.185
90             1             1       22.5863       3.36118         122.2
91             1             1       22.8126       2.24472       123.239
92             1             1       23.9315       2.72989       124.112
93             1             1       24.1751       1.65925       125.168
94             1             1       25.1791       2.03058       126.195
95             1             1       25.4916      0.837384       127.057
96             1             1        24.241       0.14629       127.644
97             1             1       24.5952       26.0201       128.697
98             1             1        25.587       26.3527       129.769
99             1             1       25.8378       25.2646       130.789
100             1             1       26.8093       25.7027       131.898
101             1             1       27.2347       24.5457       132.793
102             1             1       28.1522        24.966       133.931
103             1             1        28.429       23.7066        134.77
104             1             1       29.1699       24.1835       136.048
105             1             1       30.0101       23.1822       136.683
106             1             1         31.06       23.6819       137.645
107             1             1        30.567       24.8036       138.482
108             1             1       29.7968       24.4255       139.753
109             1             1        29.364       25.5688       140.553
110             1             1       28.6403       25.1378       141.714
111             1             1        28.205       26.2908       142.576
112             1             1       27.5151       25.7865       143.824
113             1             1       27.0827     0.0754447       144.625
114             1             1       28.1785       1.05489        144.81
115             1             1       27.9155       1.77498       146.164
116             1             1       27.3368      0.832972       147.179
117             1             1       26.7152        1.4201       148.375
118             1             1       27.1331       2.87851       148.562
119             1             1       26.8749       3.41579        149.92
120             1             1       25.4743       3.23562       150.367
121             1             1       25.1951       4.01125       151.579
122             1             1       26.4615       4.45207       152.154
123             1             1       26.0767       5.16757       153.456
124             1             1       27.1971       5.28231       154.336
125             1             1       26.9691       5.87215       155.687
126             1             1       27.2402        7.3357       155.719
127             1             1        27.061       7.50201       157.184
128             1             1       27.5574       6.18166       157.729
129             1             1       28.0567        6.3593       159.199
130             1             1       28.7964       5.18016       159.657
131             1             1       29.2116       5.41655       161.129
132             1             1       30.2247       4.37613       161.491
133             1             1       30.5834       4.55471       162.909
134             1             1    -0.0152462       5.87966       163.381
135             1             1      0.311214       5.83038        164.84
136             1             1       1.46247       4.86158       165.189
137             1             1       1.94008       4.87531       166.644
138             1             1       2.18257       6.31222       167.024
139             1             1       2.52875       6.27938       168.507
140             1             1       3.75654       5.46125       168.705
141             1             1       3.88366       5.43126       170.142
142             1             1       2.49284       5.95528       170.563
143             1             1        2.6052       6.32811       171.941
144             1             1       3.85815       7.07119       172.085
145             1             1       4.29865        7.5123       173.433
146             1             1       3.48443       8.56429        174.13
147             1             1       4.19841       9.33022       175.201
148             1             1       3.31721       9.93343       176.321
149             1             1        4.1071       10.6263       177.314
150             1             1       3.07041       11.3737       178.183
151             1             1       2.44677       10.4053       179.132
152             1             1       1.63721       11.2496       180.105
153             1             1      0.912172       10.3136       180.965
154             1             1     0.0861464       11.2085       181.859
155             1             1       30.8682       10.2525       182.971
156             1             1      0.739173         9.995       184.083
157             1             1      0.310068       8.87536       184.971
158             1             1        1.2794       8.51718        186.06
159             1             1      0.712366       7.49535       186.974
160             1             1       1.66709       7.32146       188.096
161             1             1        1.2795       6.07097       188.821
162             1             1       30.9687       5.97069       188.612
163             1             1       30.2939        5.1193       189.714
164             1             1      0.187169        4.8861       190.852
165             1             1       30.7656       3.93349       191.868
166             1             1      0.675918       3.58907        192.97
167             1             1     0.0770551       2.63768       193.933
168             1             1       30.2557       3.26168       194.978
169             1             1       29.8232       2.32953       196.002
170             1             1       28.8584        2.9324       196.993
171             1             1       28.5745       1.90685       198.065
172             1             1         29.83       1.57452       198.885
173             1             1       29.8702      0.383011        199.81
174             1             1       28.6076      0.185239       200.492
175             1             1       28.7746       26.3281        201.78
176             1             1       27.3481       26.1096       202.167
177             1             1       27.5158       24.9061       203.073
178             1             1       28.5842       25.1042       204.169
179             1             1       28.7925       23.9655       205.197
180             1             1       29.6664       24.2224       206.298
181             1             1        29.252       25.5683       207.003
182             1             1        29.579       25.5353       208.448
183             1             1     -0.109634       25.8212       208.665
184             1             1      0.192188       26.0952       210.055
185             1             1        30.476      0.309553       210.529
186             1             1       30.9078      0.482758        211.98
187             1             1        1.2728      0.469055       211.912
188             1             1       1.65134      0.890428       213.249
189             1             1      0.696742       1.91536       213.662
190             1             1       1.47459       2.46183       214.841
191             1             1      0.712244       3.48243        215.64
192             1             1       1.21366       3.87204       217.008
193             1             1      0.575764       5.15744        217.56
194             1             1       0.99615       5.44151       219.029
195             1             1       2.48307       5.67856       219.107
196             1             1       2.82477       5.93007       220.528
197             1             1       1.64026       6.58766       221.114
198             1             1       2.05912       6.92212       222.558
199             1             1       3.42674       7.39384       222.632
200             1             1       4.19121        7.3805       223.844
201             1             1       3.41459       8.11813       224.774
202             1             1       4.15084        8.1238       226.118
203             1             1       4.15883       6.82601       226.825
204             1             1       5.41958       6.47462       227.569
205             1             1       5.82587        7.7626       228.305
206             1             1       7.09906        7.6585       229.176
207             1             1        6.7589       6.77663       230.285
208             1             1         7.871       6.48303       231.228
209             1             1       7.48461       5.44279       232.254
210             1             1       8.36868       5.36812       233.494
211             1             1       8.01055       4.18296       234.252
212             1             1       9.05856       4.19568       235.257
213             1             1       8.98292       2.92283        236.02
214             1             1       10.0155       2.93418       237.135
215             1             1       9.83491       1.89144       238.209
216             1             1       8.56132       2.01311       239.092
217             1             1       8.62168       1.09693       240.236
218             1             1       7.24572       1.09057       240.712
219             1             1       6.90607      0.246072       241.956
220             1             1       5.71014      0.790129       242.755
221             1             1       5.18316    -0.0378452       243.906
222             1             1         6.375       26.2336       244.579
223             1             1       5.92419       25.4708         245.8
224             1             1       7.05616       25.3798       37.2882
225             2             1        10.007      0.505466       245.955
226             2             1       11.2913      0.285653       37.4618
227             2             1       11.7648       1.57761       38.0582
228             2             1       12.7773       1.55831       39.0817
229             2             1       12.4896      0.430194       40.0407
230             2             1       13.4703      0.368286       41.2114
231             2             1       13.2114       26.1815       42.2802
232             2             1         14.19       26.0804       43.3948
233             2             1       14.0885       24.7567       44.0898
234             2             1       14.6073       24.5381       45.5234
235             2             1       14.7717       23.1052       46.0455
236             2             1       15.1567       23.0879       47.5305
237             2             1       15.7134       21.7623       48.0772
238             2             1       15.4109       21.4472       49.5103
239             2             1        15.344       22.8156       50.2155
240             2             1       14.4784       22.6347       51.4278
241             2             1       14.1919       21.2008       51.4702
242             2             1       13.0874       21.0417       52.5765
243             2             1       13.0555       22.3073       53.3986
244             2             1       11.9523       22.1933       54.4093
245             2             1       11.6485       20.7436       54.4797
246             2             1       10.6688       20.7248       55.5796
247             2             1        11.025       21.7538       56.6479
248             2             1       10.0181        21.811       57.7311
249             2             1       10.1336       22.8984       58.7107
250             2             1       9.03443       22.8635       59.7254
251             2             1       9.14791       23.9563       60.6615
252             2             1       8.06968        24.021       61.6532
253             2             1        8.1863       25.2943       62.4592
254             2             1       6.88254       25.6211       63.2363
255             2             1       7.04681       26.8266        64.115
256             2             1       8.32794       26.7716       64.9801
257             2             1       8.21551       1.06699       65.8743
258             2             1       9.34181       1.08475        66.895
259             2             1       9.25078    -0.0152242       67.8484
260             2             1       10.3827     0.0234759       68.8752
261             2             1       10.0649       25.7522       69.7907
262             2             1       11.1462        25.666       70.8417
263             2             1       10.7837       24.6929       71.9322
264             2             1       12.1554       24.3828       72.4356
265             2             1       12.0287       23.3404       73.5305
266             2             1       13.1456       23.6108       74.5212
267             2             1       13.6901       25.0162       74.2537
268             2             1       14.9556       24.9492       75.1877
269             2             1       14.6965       24.2108       76.4585
270             2             1       15.8167       24.4176       77.3998
271             2             1       15.6043       25.7657       78.0728
272             2             1       14.3936       25.5789       78.9506
273             2             1       14.0523       26.8145       79.7465
274             2             1       13.0498       26.5086       80.8561
275             2             1       13.4457       25.3543       81.6598
276             2             1       12.4414       25.2141       82.7859
277             2             1       12.4025       26.6169       83.4108
278             2             1       11.4072       26.6439       84.5544
279             2             1        11.445       25.3483       85.3639
280             2             1       10.5917       25.4063       86.6208
281             2             1       10.5539       24.1336       87.4342
282             2             1       9.39537       24.2625       88.4474
283             2             1       9.39415       22.9285       89.1601
284             2             1       8.37262       23.0163       90.3147
285             2             1       8.45241       24.2626       91.1923
286             2             1       7.45109       24.2823        92.361
287             2             1       6.93701       25.6378       92.8257
288             2             1       6.38169       25.3934        94.228
289             2             1       5.30694       24.3097       94.4118
290             2             1       4.78993       24.4255         95.85
291             2             1       4.21545       25.7358       96.3358
292             2             1       3.65182       25.6524       97.7284
293             2             1       3.32735     -0.027667       98.4695
294             2             1       2.49278       26.5889       99.7531
295             2             1       2.12171      0.847439       100.641
296             2             1       1.34933      0.346924       101.799
297             2             1      0.972366       1.49385       102.692
298             2             1       2.22396       2.04108       103.427
299             2             1       1.84785       3.07421       104.404
300             2             1      0.482048       2.63227       104.932
301             2             1     0.0709133       3.49389       106.055
302             2             1       1.19727       3.85989       107.011
303             2             1      0.854278       4.90311       108.101
304             2             1       30.7605       4.39436       108.811
305             2             1       30.5668       5.44489       109.921
306             2             1      0.613449       6.13682       110.571
307             2             1      0.308901       7.08972       111.615
308             2             1        30.563       6.51486        112.66
309             2             1       30.0839       7.52542       113.636
310             2             1       28.8655       7.15521       114.418
311             2             1       28.4912        8.2706       115.403
312             2             1       27.4711        7.7721       116.452
313             2             1        27.035       8.84205       117.463
314             2             1       26.2413       8.06861       118.461
315             2             1       27.1618       6.93227       118.949
316             2             1       27.0369       6.41107        120.32
317             2             1       25.5685       6.03384       120.607
318             2             1       25.5991       5.15542        121.99
319             2             1       26.7072       5.50366        122.92
320             2             1       26.7709       4.49354       124.024
321             2             1       27.9948        4.6725       124.835
322             2             1       28.2735       3.54506       125.803
323             2             1       29.4925        3.8552       126.662
324             2             1       29.7914       2.64182       127.539
325             2             1       28.5161       2.44141        128.35
326             2             1       28.5041       1.28142       129.306
327             2             1       29.7325        1.3292       130.175
328             2             1       29.6996      0.366374       131.376
329             2             1       30.8356      0.525957       132.277
330             2             1    -0.0282437       26.2137       133.176
331             2             1      0.840973     -0.392264       134.377
332             2             1       1.55257       25.4827       135.209
333             2             1       2.40462       26.1566       136.288
334             2             1       2.73854       25.2475       137.412
335             2             1       3.64289       25.9538       138.387
336             2             1       3.22363     0.0901675       139.222
337             2             1       2.27235       26.5924       140.265
338             2             1       1.76182      0.794249       141.112
339             2             1      0.807422      0.251782       142.137
340             2             1      0.625181       1.32779       143.229
341             2             1       1.76033       2.31883       143.013
342             2             1       1.57189       3.02179       144.315
343             2             1      0.187656       2.67693       144.752
344             2             1      0.107168       2.71628       146.301
345             2             1     -0.126073       4.13725       146.719
346             2             1       30.7063        3.9954       148.168
347             2             1       29.9278       5.12111       148.811
348             2             1       30.2339       5.19796       150.307
349             2             1       29.4477       6.14546       151.198
350             2             1       30.1707       6.27074       152.527
351             2             1       30.0235       7.66571       153.103
352             2             1       30.4886       7.74804       154.614
353             2             1       30.3131       9.14453       155.269
354             2             1    0.00115815       9.32819       156.492
355             2             1     -0.103677       8.09823       157.422
356             2             1      0.673908       8.19708       158.766
357             2             1      0.801562       6.86021       159.538
358             2             1       1.31249       7.13563        160.88
359             2             1       2.61203       7.84739       160.606
360             2             1       3.29658       8.47007       161.784
361             2             1       3.47254       7.43894       162.952
362             2             1       3.99301       7.88736        164.27
363             2             1       5.46194       8.21837       164.264
364             2             1       5.78899       8.77186       165.657
365             2             1       5.78971       7.69632       166.643
366             2             1       6.64323       8.04026       167.879
367             2             1       6.95017       6.91004       168.837
368             2             1       7.91348       7.28257         169.9
369             2             1       7.22529       8.31041        170.78
370             2             1       8.00328       8.73487        171.93
371             2             1       7.10801        9.5511       172.807
372             2             1       7.94604       10.0844       173.927
373             2             1       7.11953       10.8513       174.937
374             2             1       7.84246       11.7259       175.913
375             2             1       6.85269       12.3455       176.901
376             2             1       7.47781       13.0523       178.041
377             2             1       6.52001        13.761       178.876
378             2             1       5.74451        12.762       179.732
379             2             1       4.57288       13.2959       180.459
380             2             1       4.29982       12.4632       181.647
381             2             1       3.64933       13.3067       182.695
382             2             1       3.32727       12.3547       183.837
383             2             1       4.49518       11.7909       184.584
384             2             1       3.94492       10.7143       185.407
385             2             1       4.89979       10.0405       186.224
386             2             1       4.23841       9.53637       187.436
387             2             1       5.18059       8.77777       188.331
388             2             1       4.69083        8.0514       189.576
389             2             1       5.79584       7.43659       190.356
390             2             1       5.23129       6.62135       191.525
391             2             1       3.73245       6.50612       191.295
392             2             1       3.15094       5.60339       192.401
393             2             1       4.35998       5.27065       193.193
394             2             1       3.95356       4.24948       194.343
395             2             1       3.07511       4.85026       195.487
396             2             1       2.42828       3.96123       196.489
397             2             1       1.63565       4.85888       197.446
398             2             1      0.959619       4.10665        198.57
399             2             1       1.94431       3.40645        199.48
400             2             1       1.53799       2.27911       200.438
401             2             1        2.6175       1.76844       201.438
402             2             1       2.04141      0.728685       202.359