LAMMPS data file via write_data, version 23 Jun 2022, timestep = 11111117

9706 atoms
2 atom types
9690 bonds
3 bond types
9674 angles
3 angle types
9658 dihedrals
3 dihedral types

0 36.89775039 xlo xhi
0 26.67072 ylo yhi
36.80370513002889 199.94789927003765 zlo zhi
0 5.132871576176955 0 xy xz yz

Masses

1 14
2 15

Pair Coeffs # lj/cut/omp

1 0.0914 3.95
2 0.1947 3.75

Bond Coeffs # harmonic/omp

1 449.5 1.53
2 449.5 1.53
3 449.5 1.53

Angle Coeffs # harmonic/omp

1 62.0967 114
2 62.0967 114
3 62.0967 114

Dihedral Coeffs # opls/omp

1 1.411 -0.271 3.145 0
2 1.411 -0.271 3.145 0
3 1.411 -0.271 3.145 0

Atoms # molecular

1 17 1 4.941613964236573 1.8378000273731818 39.473211450723284 0 0 0
2 17 1 5.627281146848176 1.8335922548574644 40.83207497374025 0 0 0
3 17 1 6.718380633903481 2.8279354485160293 40.93538052697923 0 0 0
4 17 1 7.216376973605618 2.8406585562914763 42.43759488143454 0 0 0
5 17 1 8.347446274544192 3.9322628325947133 42.64070206247199 0 0 0
6 17 1 8.80167816794742 3.7628317337500023 43.96075333612954 0 0 0
7 17 1 9.511056417459953 5.076223216776878 44.28428091001965 0 0 0
8 17 1 9.930825843185476 5.0206660820716165 45.75502132214745 0 0 0
9 17 1 11.14636120186686 4.134085318879424 45.972924942642194 0 0 0
10 17 1 11.625843534974965 3.9714533106962433 47.350670889732505 0 0 0
8422 40 1 2.0623294242738752 11.046466037917083 40.8007585336397 0 0 0
3193 26 1 16.611771934905217 11.869333552923603 41.64968410211023 0 0 0
4251 6 1 17.236053590269336 24.11002137465842 37.30488210273548 0 0 0
2127 15 1 2.667413211241822 21.85277125801589 37.7524418276395 0 0 1
8887 59 1 1.1654137939953977 19.281844105417576 45.927343192862566 1 0 0
7899 9 1 1.0979714311072113 6.292271557150553 40.55430617961725 1 0 0
8127 56 1 3.1196976210368748 11.448868023790581 47.086103599384955 1 0 0
1062 8 1 7.763716329511737 13.014811289404948 38.10571999585937 0 0 1
1065 8 1 10.142733306122249 15.237161081136579 39.66509073275223 0 0 1
1908 59 1 8.416563916856472 22.857749353809616 38.29128749061413 0 0 0
2130 63 1 5.03219573368598 24.193286567533594 39.76992718303106 0 0 0
4027 46 1 10.893118462911325 20.952653592171462 36.817688883729566 0 0 0
9182 61 1 1.7668070690382796 20.4189055315731 40.6565115646146 1 0 0
1219 9 1 2.8508133783455185 13.049399879677788 37.80401829812529 0 0 0
226 3 1 9.505901331314785 5.211099853389489 39.32861842514764 0 0 0
227 3 1 10.226302291518774 6.439579732406038 39.73688516111172 0 0 0
228 3 1 11.10486920942985 6.219249828975967 41.00955384596846 0 0 0
229 3 1 11.639626643707846 7.501576595564258 41.46476973706602 0 0 0
230 3 1 12.137007299362477 7.472990148774867 42.905262000741914 0 0 0
231 3 1 13.268763561509566 6.446983016375189 43.0798124358712 0 0 0
232 3 1 13.469357534749529 5.998976178019227 44.50485305865027 0 0 0
233 3 1 14.71769313241821 5.0046054055136135 44.767925068151676 0 0 0
234 3 1 14.879671196494153 5.097840585095344 46.235123614576324 0 0 0
235 3 1 15.981230197665063 4.033185292056534 46.64191072374072 0 0 0
2584 20 1 17.268524492737384 6.328972359247828 38.87547684954482 0 0 0
1064 8 1 9.002827103337687 14.234417317290246 39.861443316517224 0 0 1
7236 52 1 6.352412310355759 4.757218526455824 50.710875091821464 0 0 0
8665 62 1 2.2187820634267488 16.448597859037392 40.80813397305698 0 0 0
1749 43 1 3.5020562836495364 17.40443632038806 37.934317494157 0 0 0
8892 59 1 4.730345982632529 22.507901341589534 49.90576398364909 0 0 0
3865 31 1 18.16191412878917 18.505193303352097 38.77009642309055 0 0 0
449 3 1 6.963747638629559 7.288987115386665 41.04025571405379 0 0 0
450 3 1 7.290171820271535 7.341651234604133 42.473655808117705 0 0 0
451 3 1 8.419066508582594 8.259692284948333 42.557885032719184 0 0 0
452 3 1 8.725879548062105 8.274255537502674 43.97564682861494 0 0 0
453 3 1 9.502127195684427 9.501347873729816 44.412133374595086 0 0 0
454 3 1 10.00456845253737 9.497802703318612 45.781320806649184 0 0 0
455 3 1 11.147340257284416 8.532498264939921 45.81216520154851 0 0 0
456 3 1 12.049783292356622 8.549804426177857 47.067842914279574 0 0 0
457 3 1 12.069555167907527 7.2261056427026436 47.648547758150386 0 0 0
458 3 1 13.323121447500236 7.051241954920326 48.54252411687481 0 0 0
459 3 1 13.594661654076825 5.8107624155778606 49.31112758513741 0 0 0
9186 61 1 5.062482034271264 22.02604067881379 44.18133888381524 0 0 0
8503 56 1 0.40850525512472463 13.818334991384312 44.17650181305057 1 0 0
3854 39 1 12.38695233725838 17.562033791336106 36.98822827653434 0 0 1
7237 52 1 6.570875486748453 3.474029589977525 51.552684545521 0 0 0
8505 56 1 1.940277308575367 14.795807554023805 45.950004527185726 0 0 0
3192 26 1 15.270106050116642 12.656214027888787 41.57671890336468 0 0 0
9274 62 1 1.5842571690506424 24.445278005110705 46.51004765854611 0 0 0
7453 5 1 1.850651237628124 2.7788591133684704 40.98818868560436 0 0 0
3034 22 1 16.89924165054787 11.059058979807066 37.031976986386425 0 0 0
525 3 1 4.488600327344572 5.069935062951701 39.37957157575931 0 0 0
526 3 1 5.459887431206763 6.190198872157435 39.39186837269658 0 0 0
527 3 1 5.767435898049625 6.336554501100492 40.86813255275774 0 0 0
1527 12 1 9.461916312187608 18.687006518590863 39.55371963579209 0 0 0
687 4 1 10.186293886836795 11.02486424594538 40.13181253387961 0 0 0
688 4 1 10.632755140091167 11.181817002195338 41.592464612908564 0 0 0
689 4 1 11.848840002586796 11.988236441174354 41.71394446064517 0 0 0
690 4 1 12.313761960467932 11.754908124024693 43.097516703584 0 0 0
691 4 1 12.97911052237642 10.328740516635092 43.43931160882813 0 0 0
692 4 1 13.732322122168682 10.40095777139236 44.78262287109067 0 0 0
693 4 1 14.826705927245621 9.37170656970301 44.8409519362443 0 0 0
694 4 1 15.529205501812962 9.533184733440006 46.21028077544778 0 0 0
695 4 1 15.997561988853153 8.169355993497183 46.626030020142174 0 0 0
3863 31 1 16.693060146093977 19.776352667434516 37.26077932706715 0 0 0
2129 63 1 4.554693325375874 22.845134025094463 39.24811531767067 0 0 0
9185 61 1 3.630545851810777 21.660270527989322 43.8811998168288 0 0 0
8890 59 1 3.372692854987071 21.664841886603654 48.036677746941095 1 0 0
225 3 1 8.425425692856415 5.060854964006309 38.285366745593606 0 0 0
1315 12 1 18.32226991961232 16.165794406548763 49.12705919131669 0 0 0
7684 1 1 1.6572505544415743 5.780423903034767 45.713186901187775 0 0 0
7452 5 1 0.6969463476281218 1.7198746552742563 40.80115023290487 0 0 0
765 47 1 8.842853554745021 12.81789816562165 44.503982425323905 0 0 0
766 47 1 9.930195939947144 13.872713309955575 44.35301243263605 0 0 0
767 47 1 10.559333991063506 14.07141430641453 45.74487718798775 0 0 0
768 47 1 11.168989610409447 12.697642998229064 46.19764964177683 0 0 0
769 47 1 12.129907462459117 13.146428358488107 47.26679348621815 0 0 0
770 47 1 12.737446974836681 11.800777026339734 47.60419680296765 0 0 0
771 47 1 13.889031255270844 11.872862179305367 48.6083760133919 0 0 0
772 47 1 13.804664227853625 10.689056211557226 49.608372557602195 0 0 0
773 47 1 15.024556618282704 10.32144014189824 50.51239964914449 0 0 0
3415 29 1 16.850575834299583 15.323498013870978 37.31539736709561 0 0 0
9275 62 1 2.9751633769507477 24.840849146829086 46.91549820625974 0 0 0
8424 40 1 3.11800108449552 12.749317268061455 42.3810326347545 0 0 0
8423 40 1 2.0700045223224577 11.718371086659495 42.119660184196505 0 0 0
8126 56 1 1.7681637420396419 11.451623372129335 46.45009467556338 1 0 0
9281 62 1 7.465659930821862 25.88191348069843 51.99984846784908 0 0 0
2812 30 1 17.85025081106936 5.943336898691113 44.720292485352346 0 0 0
1072 4 1 18.680569813145972 10.57442821047106 49.74322994868427 0 0 0
15 17 1 15.664152872693677 0.320713260172708 50.44197467840462 0 0 0
8506 56 1 2.287290359654753 16.03516820310572 46.65314669452634 0 0 0
3857 39 1 14.042207271055677 18.463331689977995 40.16581757502173 0 0 1
986 47 1 6.792814086327293 11.556469139406474 41.350675090098996 0 0 0
987 47 1 7.434618792200657 11.416286983529337 42.72513636062152 0 0 0
988 47 1 7.926673525311672 12.762768001528391 43.24940133952791 0 0 0
1068 4 1 15.940957781294845 12.656316057850486 46.08726345824796 0 0 0
1069 4 1 16.85440466640076 12.845722518109529 47.218028341045034 0 0 0
7898 9 1 0.2710598137934288 6.4960814100236135 39.29358257355518 1 0 0
7689 1 1 4.716553213131884 9.00649116213043 49.97960504151812 0 0 0
4030 46 1 13.647946582002241 22.94032567927831 38.49925870326665 0 0 0
1063 8 1 8.428873372084727 14.254670268194397 38.54553254208754 0 0 1
8131 56 1 6.485467998977566 13.465789030285874 50.24552245622322 0 0 0
4031 46 1 14.340472215355055 23.152031980939135 39.84917235070734 0 0 0
7900 9 1 2.0512647921822715 7.2933502672961685 41.04325002161101 0 0 0
1155 9 1 14.321207710199891 15.2872871966496 49.27432651735363 0 0 0
1920 63 1 15.131321574679212 22.613252321797216 50.98990999598381 0 0 0
6695 48 1 3.55418289694578 23.62952902834306 52.73336985887758 0 0 0
7075 23 1 3.338410874134683 1.5909834731941246 52.98104631247457 1 1 0
3639 30 1 18.531066163686354 14.780342020849565 44.87384277146562 0 0 0
1143 4 1 12.820061191014164 15.225174438447704 42.89415520800735 0 0 0
1144 4 1 13.427108463507377 15.115633950735388 44.25551275509389 0 0 0
1145 4 1 14.403656803116446 13.994459672314877 44.44483237086212 0 0 0
1146 4 1 15.079521960071558 13.938515192954952 45.830244677473985 0 0 0
1147 9 1 8.0995041265723 17.62750731049043 43.116284645286356 0 0 0
1148 9 1 9.05308017824661 17.406009530134096 44.26614154557791 0 0 0
1149 9 1 9.751717724302573 18.70482063042761 44.47519339019097 0 0 0
1150 9 1 10.418290270463197 18.60390663883298 45.88422701471052 0 0 0
1151 9 1 11.112306751517503 17.321905264287167 46.058523506556575 0 0 0
1152 9 1 11.778502399687646 17.346753779025907 47.367747482797434 0 0 0
1153 9 1 12.39382137608331 16.071625822833223 47.635017956506665 0 0 0
1154 9 1 13.082388520510724 16.081439136117726 48.968865121494815 0 0 0
8128 56 1 3.3227026543718576 12.619717050504171 47.985482307190495 0 0 0
4786 35 1 16.51521077379559 1.7486361786009577 37.0572057261525 0 1 1
7692 1 1 7.792791862537007 8.223236802032423 51.86762334955904 0 0 0
776 47 1 16.546622723118443 7.746211884370173 52.70902872644621 0 0 0
3858 30 1 14.958287292171041 17.214990324865237 40.151731413709484 0 0 0
1843 59 1 18.573629723768548 19.607160449793994 49.8177611123629 0 0 0
2362 29 1 14.216521855108534 5.247780843696926 39.81006582278233 0 0 0
9500 63 1 6.250985699839488 1.300419696869802 45.455432441082635 0 1 0
14 17 1 14.3666344497287 1.1642377927854775 50.12266980726786 0 0 0
1540 43 1 14.11459893402677 19.538811795041486 49.4903592807422 0 0 0
8508 56 1 3.462246355351238 17.057410404134647 48.2803263323229 0 0 0
1921 63 1 15.952764816724633 22.944015156814338 52.32923546397959 0 0 0
1223 9 1 5.862973485017116 15.000567412681528 41.33449734817486 0 0 0
1224 9 1 6.689965650222273 16.259061288005693 41.393065272205114 0 0 0
1225 9 1 7.521207311349106 16.31447873213156 42.62711301862548 0 0 0
1305 12 1 10.569720910177875 20.00354205118815 41.26387198743274 0 0 0
1306 12 1 11.682735128439555 21.06970255312189 41.30698692093795 0 0 0
1307 12 1 12.245422607923487 21.064103818507416 42.64514265689863 0 0 0
1308 12 1 13.027802616635725 19.707049837470027 42.96460799658442 0 0 0
1309 12 1 13.745902184517275 19.680467851064783 44.24487036645287 0 0 0
1310 12 1 14.402692986973005 18.34449661768598 44.37706707364589 0 0 0
1311 12 1 15.081497629668194 18.296674166345195 45.796106983378 0 0 0
1312 12 1 15.976322138556302 17.13837357538245 46.132730895049235 0 0 0
1313 12 1 16.41654828056335 17.106461010576023 47.68168324442514 0 0 0
1314 12 1 17.63176716281449 16.24120686454222 47.80476127082904 0 0 0
6692 48 1 1.600359690617458 23.927264804464873 50.42027335898494 1 0 0
2585 20 1 18.35620792621332 5.243691493583675 38.980495457812495 0 0 0
3027 21 1 12.148084725474709 8.6801180231407 36.8482655837941 0 0 1
1158 9 1 16.340931611448006 13.565948116306696 52.1599129162574 0 0 0
9501 63 1 6.797044889881955 1.6161927410975117 46.885306389379565 0 1 0
9276 62 1 3.2439463216291315 25.871891327617693 47.97940401400555 0 0 0
7913 9 1 11.673946748637162 9.041492477433852 52.00612494453441 0 0 0
2128 63 1 3.5185374927419204 23.1610906150624 38.140984734367485 0 0 0
1529 43 1 6.191903686892987 19.605665716557397 41.0648540879541 0 0 0
1530 43 1 6.943258705265431 20.78493888584241 41.296281675572004 0 0 0
1531 43 1 7.70850828738382 20.801192590654736 42.473802403920686 0 0 0
1532 43 1 8.397824905818897 22.09294601105601 42.80111726372682 0 0 0
1533 43 1 9.273982394655173 21.971924659421294 43.934273535662335 0 0 0
1534 43 1 9.857359080108644 23.240955313988355 44.57734263236736 0 0 0
1535 43 1 10.120752538502217 22.663586817012124 46.028746330170236 0 0 0
1536 43 1 11.17756873852464 21.697465924282408 46.03805112302766 0 0 0
1537 43 1 11.506899580413759 21.59152673765775 47.58138563187348 0 0 0
1538 43 1 12.679193959626577 20.603198004993317 47.73819389377998 0 0 0
1539 43 1 12.998064445516627 20.406373954541888 49.230812090934876 0 0 0
4036 46 1 18.07706732809237 19.28008532016249 43.50864048233714 0 0 0
1067 8 1 11.488741189334705 16.611727385444436 41.27169708591524 0 0 1
1066 8 1 10.799964812672574 15.324494565337783 41.04188212398443 0 0 1
9493 63 1 0.717994648510505 23.519813654718188 40.287862443985325 1 0 0
4410 38 1 12.645809191560913 26.22729814031045 38.2178498991112 0 0 0
3029 30 1 13.385186798704611 9.92097369958833 38.52612339485299 0 0 0
1909 59 1 8.97541067424046 23.015181059877897 39.69271547689486 0 0 0
686 4 1 9.427390596761251 9.785731398278324 40.080895554052034 0 0 0
5857 13 1 1.7984030668493405 15.68554890392976 51.374802211613336 1 0 0
1750 43 1 3.7835883527078162 18.744570804479864 38.42985996543834 0 0 0
1751 43 1 4.615271931453838 18.458909653687087 39.60095272233009 0 0 0
1752 43 1 5.2742372832769515 19.737469112361115 39.83482246700104 0 0 0
1832 59 1 10.333989797024833 24.172392779655343 41.24945383969399 0 0 0
1833 59 1 11.542852864563798 25.06165469502372 41.363698441729376 0 0 0
1834 59 1 12.132216022961085 25.12258114206464 42.7494907214777 0 0 0
1835 59 1 13.408859544217155 24.20011602568195 42.95808690114905 0 0 0
1836 59 1 13.464671091984044 24.062728744991137 44.47345573580228 0 0 0
1837 59 1 14.393998246685598 22.863178670932896 44.67138716416184 0 0 0
1838 59 1 14.830634169841565 22.596271821515643 46.1432405857645 0 0 0
1839 59 1 15.847836950424558 21.520498028986044 46.31346052785359 0 0 0
1840 59 1 16.249766467102415 21.735549600363377 47.72315628326539 0 0 0
1841 59 1 17.073477340999464 20.565836482916968 48.14565951235891 0 0 0
7687 1 1 3.3490825580398034 8.111190355222167 48.30636286788486 0 0 0
1526 12 1 8.812649437044266 18.74799726817823 38.286653957743525 0 0 0
1156 9 1 14.848892217945625 15.198609908022027 50.67408974650163 0 0 0
4409 38 1 11.832671983797212 26.38481078091703 37.00992066606714 0 0 0
5858 13 1 2.9774661534356643 15.83147277642069 52.25262054049672 1 0 0
8678 62 1 11.219408102261509 17.869279277005248 52.18832262745157 0 0 0
7232 52 1 3.6154323472747563 2.4246104295074073 47.21004086524019 0 0 0
1910 59 1 9.895128350816881 24.21496559671866 39.80284417489967 0 0 0
1911 63 1 8.999688060186847 26.419081789702396 44.413368306067945 0 0 0
1912 63 1 9.984836918392332 0.8484895076320353 44.32194977216342 0 1 0
1913 63 1 10.992935628167249 0.9217849290232517 45.55189935585462 0 1 0
1914 63 1 11.132818138887004 26.233446641923692 45.88156902758765 0 0 0
1915 63 1 11.95344348238309 26.294124137262788 47.127008294375045 0 0 0
1916 63 1 12.054073580363195 25.004065349209107 47.728516775199054 0 0 0
1917 63 1 13.319179867511107 25.097096552515612 48.52053981199115 0 0 0
1918 63 1 13.817848798712086 23.84192462320609 49.12265623497413 0 0 0
9190 61 1 7.9156741883331305 24.873393543093655 47.150103796860314 0 0 0
8129 56 1 4.670554094219202 12.520558272424902 48.59046810312104 0 0 0
463 3 1 16.899493807698583 3.394306376302038 52.39415054998094 0 0 0
17 17 1 16.941419880139293 25.98135058796182 52.26191510052889 0 -1 0
7686 1 1 3.27607608320283 7.136714488815791 47.14409668412943 0 0 0
9494 63 1 1.6112472686664394 24.810754515416242 40.56348237349128 0 0 0
9503 63 1 8.228741743241864 2.736583423059661 48.54836783483626 0 1 0
4029 46 1 12.354387886959806 22.168827205864027 38.36183182199764 0 0 0
3856 39 1 13.708722055854553 18.786591085815903 38.65914680827735 0 0 1
2367 29 1 18.007302931379982 1.5388769315372302 43.37933619559764 0 0 0
1543 43 1 16.133356988823724 17.846911155398246 52.16795381786582 0 0 0
2131 63 1 5.71545709010849 24.092575119172153 41.08080712092416 0 0 0
2132 63 1 6.6379695275050405 25.260905395977556 41.284719773020115 0 0 0
2133 63 1 7.381989470403551 25.280542059317554 42.65607226787123 0 0 0
2134 63 1 8.252555375005635 26.498461022872274 43.096109273979394 0 0 0
2135 17 1 13.268084864947255 1.719028798764086 42.997774351199425 0 1 0
2136 17 1 14.037174507993097 1.8631879128835034 44.239352228994775 0 1 0
2137 17 1 14.400422632408045 0.5421950923321686 44.82878804657517 0 1 0
2138 17 1 15.641708627548137 0.5004270563516303 45.76698065888259 0 1 0
2139 17 1 15.8536540698493 25.975669770083343 46.60100985079375 0 0 0
2140 17 1 17.204822822775476 25.763728874851683 47.32195158940158 0 0 0
2141 17 1 17.118486236434332 24.839551703029166 48.56705020732113 0 0 0
2359 29 1 12.09194033860687 3.9498453490742325 37.036104608213826 0 0 0
8134 56 1 8.079438832523982 11.414808400462567 53.06267870160031 0 0 0
5413 40 1 2.0463428398655354 11.53355731768757 51.22439701450294 1 0 0
1748 43 1 2.2861106131314632 17.621280240819324 37.06228739488498 0 0 0
1542 43 1 15.85922862462458 18.47049841538217 50.820754824959764 0 0 0
8507 56 1 3.5212488356835308 15.796109640677884 47.46831482178253 0 0 0
1525 12 1 7.771602095916293 17.55720101181081 38.11647494963558 0 0 0
2355 17 1 10.54089920435893 1.5304520234220684 40.0592421342138 0 1 0
2356 17 1 10.89401434397154 2.0024143230248925 41.4012463464789 0 1 0
2357 17 1 11.843331284167276 3.139951241412299 41.65307361039688 0 1 0
2358 17 1 12.580073258763118 3.039478194475191 42.85651680863574 0 1 0
4788 35 1 18.118578384356507 0.8373360084159378 38.776152238613044 0 1 1
985 47 1 5.815098137300087 10.508449102751856 40.76435028977171 0 0 0
7234 52 1 5.055195402786208 3.8543628705877646 48.682355906648695 0 0 0
8510 56 1 4.901049732478179 18.02599339042109 50.11490670263746 0 0 0
2363 29 1 14.751134905149035 3.9643146811507095 40.386953656279466 0 0 0
2364 29 1 15.573385434322576 4.036893181879049 41.51691228327181 0 0 0
7904 9 1 4.870405262858103 9.327531620279778 44.436680158416415 0 0 0
2365 29 1 16.39539376255558 2.80846092042571 41.820514243346636 0 0 0
8125 56 1 1.6909534717653902 10.156944560193528 45.685487499824596 1 0 0
8675 62 1 9.333944480513773 19.23730068655372 49.11083234804248 0 0 0
2352 16 1 7.667788347428548 26.175338983710553 38.26861234295452 0 0 1
1221 9 1 4.502402276798367 13.866755196437522 39.492665414178525 0 0 0
5415 40 1 3.3726871984176623 10.39706019906285 52.91361015508245 1 0 0
4252 6 1 17.7361413419558 23.840485012805566 38.80588106881628 0 0 0
2807 30 1 14.747217710682508 8.738236610902584 40.18085387284263 0 0 0
2808 30 1 15.456705432698726 8.986094066416012 41.419197194052266 0 0 0
7690 1 1 6.194007202086277 9.11922289753055 50.42399862349178 0 0 0
1070 4 1 17.48828027974262 11.568220866510801 47.67048208208262 0 0 0
222 17 1 2.480411298481556 26.220221991436457 37.81317174804164 0 -1 0
8891 59 1 4.741919410637431 21.64199034492863 48.74142098164904 1 0 0
238 3 1 18.27051296159189 2.701189576633294 49.30164806997705 0 0 0
9189 61 1 6.993795711439425 23.743944797846005 47.15688974087042 0 0 0
8886 59 1 0.4776047809817856 19.39203770043445 44.65042641430861 1 0 0
3030 30 1 13.91007890787182 9.878158695529033 39.908711144117866 0 0 0
8889 59 1 3.01002903542023 20.391487843126107 47.40603492534643 1 0 0
697 4 1 17.41669132792212 7.141910746221554 48.08717988001834 0 0 0
9193 61 1 9.76882785046312 23.880042578107066 50.31435393133947 0 0 0
4411 38 1 13.38949210335787 0.7123580504920424 38.859186336897956 0 1 0
3189 26 1 13.502904664708307 14.192934296283878 38.496188550010714 0 0 0
3190 26 1 13.875979239477463 14.052941577425054 40.035778188513476 0 0 0
2810 30 1 16.789245609497335 7.4286972829638955 43.10182083264743 0 0 0
7467 5 1 12.252074229155346 3.4765930176569024 52.08779076442138 0 0 0
7231 52 1 2.296931074754036 2.5889399389887364 46.57540261875438 1 0 0
1528 12 1 10.08523174233455 19.950186965417483 39.79482160175493 0 0 0
1222 9 1 5.391933276168231 14.984562220972444 39.896769579776326 0 0 0
9508 63 1 12.15309324073922 26.071909724009043 52.05528477759642 0 0 0
7230 52 1 1.7890967251113592 1.3173319469961389 45.8613535530547 1 0 0
3412 26 1 12.559817122951165 13.099542474105522 38.0436915163503 0 0 0
3416 29 1 17.386008249032468 15.135522773444652 38.624085510615394 0 0 0
698 4 1 17.735702491984835 6.8607314472830625 49.553391870830815 0 0 0
8435 40 1 11.839595515672425 13.880532042518725 51.653102662714 0 0 0
3028 30 1 12.766883340437497 8.564069432931769 38.284665113909476 0 0 0
3637 30 1 17.3099437071205 15.990448929129153 43.22348881808497 0 0 0
3194 26 1 16.934721559597246 11.712086103038127 43.17917186040397 0 0 0
7464 5 1 9.997072320992823 5.9155230014260765 50.3277893724501 0 0 0
223 17 1 3.3743208935982834 0.7593467531997546 37.97747037192361 0 0 0
6248 42 1 1.8958011897701805 20.322504583267914 51.218703040199884 1 0 0
524 3 1 3.7971678593716454 5.082026976853633 38.005259097357936 0 0 0
8674 62 1 8.605592848335904 20.613153203449144 49.02241949102261 0 0 0
1071 4 1 18.4751985033831 11.786724554562841 48.84487241081468 0 0 0
3859 30 1 15.668087080119376 17.032395042533405 41.48065505286292 0 0 0
3860 30 1 16.613622738875794 15.918996912900834 41.84440469329946 0 0 0
7238 52 1 7.758811604674626 3.6014844847336525 52.338481562337975 0 0 0
982 47 1 3.648843036228281 9.559870507518879 37.81428614878432 0 0 0
13 17 1 14.319631932290413 1.6067897508724054 48.75521206817969 0 0 0
4415 38 1 16.774141845533983 25.0458843514685 41.87940113897069 0 0 0
3195 26 1 17.999730113513934 10.579665719536052 43.2023832575462 0 0 0
7466 5 1 11.419972512921188 4.7747847715310385 51.703118879953564 0 0 0
9181 61 1 0.5742587816585998 19.521880809059827 40.70101937104406 1 0 0
4418 38 1 18.40067967094894 23.858176369936146 45.003667152745244 0 0 0
6249 42 1 3.1215333815455786 20.301412238743936 52.095498162333655 1 0 0
523 3 1 2.6290259764599924 4.1440034938709776 38.092331733177275 0 0 0
4032 46 1 15.21318179800265 21.982286802977015 40.25451126471071 0 0 0
8667 62 1 3.8002546010121834 17.265023374758936 42.60628988727122 0 0 0
8894 59 1 6.161940430129958 21.381487357883966 51.35947502523019 0 0 0
8132 56 1 6.506113156859509 12.318078226183356 51.249429215191796 0 0 0
9496 63 1 2.9433909807823397 26.025623331399416 42.39802095577143 0 0 0
9280 62 1 6.096444479517493 25.823389847268043 51.20979678397919 0 0 0
462 3 1 16.31216065457727 4.57634259798356 51.89180503115003 0 0 0
8509 56 1 4.752772336632793 16.973395213257664 49.0891658143219 0 0 0
8666 62 1 2.3858144444518867 17.037072718858973 42.10116658165211 0 0 0
460 3 1 14.672941568714897 5.67833036749713 50.35852493182195 0 0 0
236 3 1 16.561984951617042 3.957356543848496 47.94145537660023 0 0 0
7901 9 1 2.7229344482798195 7.054472133521137 42.396940836043036 0 0 0
3035 22 1 17.56013012227296 11.047731664030698 38.40792675746575 0 0 0
4413 38 1 15.356598087793646 26.206541566435376 40.00603397464056 0 0 0
4414 38 1 15.59624658885293 26.018124612191407 41.41122311074542 0 0 0
7451 5 1 0.11530001448599003 1.9329889890422969 39.40096000450486 1 0 0
7072 23 1 1.6256256416401391 1.6668463751827194 50.07380070448946 1 1 0
8434 40 1 10.899016576731903 13.54512258288853 50.47727911873018 0 0 0
8896 59 1 7.555025419616856 20.24809530868144 53.05265391883719 0 0 0
2360 29 1 12.658068593696807 4.060558601765374 38.35021594564531 0 0 0
9192 61 1 9.337519941527017 23.906809307817227 48.91612390096626 0 0 0
4033 46 1 15.798562442557285 21.7990822125457 41.6589238297375 0 0 0
696 4 1 16.666469515073036 8.40808117705903 47.93733852314172 0 0 0
2354 17 1 9.24824491452402 0.6181334747038927 39.92130511654947 0 1 0
2353 16 1 8.749599705105974 0.5917992220186861 38.58038699748197 0 1 1
8893 59 1 6.116039689905096 22.609996998514593 50.40238063781669 0 0 0
9195 61 1 11.381093314919672 22.734600996741772 52.049629781534435 0 0 0
1907 59 1 7.416155176390707 21.856209656778606 38.08494507104001 0 0 0
7914 9 1 12.598257863805594 7.876341147813823 52.33226863812536 0 0 0
8130 56 1 5.122544689893589 13.612374426787564 49.51141859441159 0 0 0
2811 30 1 17.822722768492607 6.3169981960436985 43.237941559109125 0 0 0
9499 63 1 5.249950564076079 0.2800389692028609 45.29530940646242 0 1 0
8511 56 1 5.967178176103224 17.85858618833208 51.103493652012645 0 0 0
6693 48 1 1.8194431591363935 25.047751566318514 51.57829379720026 1 0 0
7903 9 1 3.8568010083939717 8.32433019722441 44.031917970230005 0 0 0
1922 63 1 16.593521786410584 21.581144716673045 52.58718569079686 0 0 0
5034 64 1 2.8008911373346486 7.2102870850000365 52.05356965943224 0 0 0
8670 62 1 5.471211221857378 18.19201481058358 45.83437678991369 0 0 0
5412 40 1 1.6554434856417983 10.17580641815942 50.561501422103234 1 0 0
5414 40 1 3.3804228905445237 11.636265249634594 51.90546656696969 1 0 0
984 47 1 5.434341829588379 10.572789803831654 39.351402249138175 0 0 0
9502 63 1 7.745513911719623 2.747268999111004 47.06277658578128 0 1 0
4250 6 1 16.178522407459273 25.25304187408207 37.03935151232386 0 0 0
8426 40 1 4.620571326523627 13.988449575145177 43.93635605981379 0 0 0
981 7 1 2.9976998776137695 8.252205334559905 37.52253522237584 0 0 1
8895 59 1 7.507159593943601 21.320499991108413 52.11788262793044 0 0 0
9505 63 1 9.535146311702228 1.3535808172442698 50.15262019404001 0 1 0
3864 31 1 17.323907666825114 19.80053099312559 38.63979411432878 0 0 0
983 47 1 4.510918540826457 9.43496163198765 39.02735617475918 0 0 0
9196 61 1 12.033461277099292 21.397734270418855 52.355989079761756 0 0 0
774 47 1 15.188985278509453 8.923345274671709 51.02974072383599 0 0 0
3855 39 1 12.829380925547904 17.616936882403778 38.32803577864548 0 0 1
7463 5 1 9.157021625812925 5.900158107019952 49.08954518904119 0 0 0
9273 62 1 1.4043512899944044 23.828948547157378 45.15503464255901 1 0 0
8672 62 1 7.041101203271204 19.291523722125685 47.541033030487476 0 0 0
4034 46 1 16.338548644050622 20.464006000966346 41.87932685062145 0 0 0
8513 56 1 7.580124762939131 16.44085000668313 52.33220481097298 0 0 0
461 3 1 15.086252521451394 4.4262711312345004 50.94986876059042 0 0 0
8673 62 1 7.91006463457994 20.518717661168616 47.618037856775345 0 0 0
8668 62 1 3.751299057979386 17.82684273939297 44.035655638428956 0 0 0
7688 1 1 4.467791958455708 7.807050442842034 49.17649600226058 0 0 0
4417 38 1 17.96094156600157 23.872850528339875 43.54751314116595 0 0 0
6246 42 1 0.45965603913508385 19.118447985834457 49.885035514393905 1 0 0
7912 9 1 10.87887199014802 9.048789053475863 50.70714923952953 0 0 0
9504 63 1 9.152637118113912 1.5143424149712799 48.71137939609112 0 1 0
9495 63 1 2.389212005747167 24.688749729635802 41.894842993628615 0 0 0
9184 61 1 3.6794859520921697 21.24339163167837 42.44310413325382 0 0 0
763 4 1 8.266826083503394 8.426402114856963 38.34365811267958 0 0 0
3638 30 1 17.966038424010478 14.729980106485197 43.58696631645917 0 0 0
7456 5 1 4.036430073898244 3.7101578630404357 44.01975830171288 0 0 0
7457 5 1 4.999940122279172 4.837006055979174 44.11427153676717 0 0 0
7458 5 1 5.450858317298653 5.035423881483333 45.53762656679213 0 0 0
7459 5 1 6.392302319661886 6.161194672954726 45.581628748802004 0 0 0
7460 5 1 6.829827880184594 6.138647803529126 47.044920422199525 0 0 0
7461 5 1 7.947297496466966 7.138504658269584 47.21005228564533 0 0 0
7462 5 1 8.405924249638971 7.217056629284476 48.625533649829094 0 0 0
6247 42 1 1.8779481299422396 19.324045219213943 50.213116777404 1 0 0
775 47 1 16.519222479340335 8.965647450896386 51.81569615403558 0 0 0
9506 63 1 10.690475881711315 0.44742962924971347 50.406138289366716 0 1 0
7233 52 1 3.7751475460465116 3.6392633848345506 48.16188934840238 0 0 0
9497 63 1 3.802276664399324 25.76562794033024 43.68782006532223 0 0 0
1157 9 1 15.76626799900001 14.02716888456243 50.80441607107755 0 0 0
764 4 1 8.800195062120052 9.7754239337215 38.76891994458874 0 0 0
5856 13 1 1.6975760845951395 14.846145029519485 50.153744151288876 1 0 0
7074 23 1 2.975305693940954 2.8002130622911943 51.99343048510909 1 1 0
9188 61 1 6.689567593554085 23.46145832383013 45.708916835556664 0 0 0
7073 23 1 1.6946984947507473 2.5996493093051245 51.29096300662136 1 1 0
8671 62 1 6.4755570990378075 19.198254312699778 46.199554610081975 0 0 0
1544 43 1 17.24329413112939 16.80560946794748 52.16543872262913 0 0 0
237 3 1 17.509934925697394 2.7090994941077438 48.06771138538757 0 0 0
3191 26 1 14.826042680222137 12.977242982883169 40.21873678020036 0 0 0
1541 43 1 14.559441824248664 19.17005506684374 50.816983897483155 0 0 0
6694 48 1 3.2246508182889677 24.926747994253407 52.21710706821261 1 0 0
1159 9 1 17.490821953445934 12.53753090746954 52.2513703119421 0 0 0
16 17 1 15.834621690171154 0.3022101316040193 51.90419591342636 0 0 0
2366 29 1 17.425039959419124 2.8741230439788747 42.92743943718856 0 0 0
7455 5 1 3.501753166857837 3.8039758735335067 42.544977111633074 0 0 0
4035 46 1 17.24959927698629 20.52123258174913 43.12685200607624 0 0 0
7902 9 1 3.6550690041259553 8.281913543462283 42.59285152929326 0 0 0
8436 40 1 12.696886425561981 12.74906584445032 52.07758347671835 0 0 0
8425 40 1 3.717427515282873 12.70310749490646 43.76140233383765 0 0 0
4787 35 1 17.38157954408282 2.023545114832349 38.28432095032832 0 1 1
7905 9 1 5.248226995309857 9.323971309355526 45.855249822309595 0 0 0
7906 9 1 6.346881386438406 10.294028117838701 45.984549460349925 0 0 0
7907 9 1 7.069973150736228 10.324676013302025 47.22347737532119 0 0 0
7908 9 1 7.94803800351096 11.620024160306873 47.30773004888267 0 0 0
7909 9 1 8.656719797736997 11.515676490824655 48.643582942013374 0 0 0