LAMMPS data file via write_data, version 29 Oct 2020, timestep = 34000000

10752 atoms
2 atom types
10752 bonds
3 bond types
10752 angles
3 angle types
10752 dihedrals
3 dihedral types

-0.14008467197455765 31.00800467195786 xlo xhi
-0.12103695559386196 26.791756955566022 ylo yhi
-1.284306571764688 284.2836665710425 zlo zhi

Masses

1 14
2 15

Pair Coeffs # lj/cut/omp

1 0.0914 3.95
2 0.1947 3.75

Bond Coeffs # harmonic/omp

1 449.5 1.53
2 449.5 1.53
3 449.5 1.53

Angle Coeffs # harmonic/omp

1 62.0967 114
2 62.0967 114
3 62.0967 114

Dihedral Coeffs # opls/omp

1 1.411 -0.271 3.145 0
2 1.411 -0.271 3.145 0
3 1.411 -0.271 3.145 0

Atoms # molecular

230 2 1 4.98419510589257 2.8292465522323864 1.864954283405671 0 0 0
231 2 1 5.727063614864464 3.2574546926165535 3.1619398544023314 0 0 0
229 2 1 5.394057306730904 3.5124857810813035 0.5654802827587764 0 0 0
232 2 1 5.023708558406035 2.7568929270800266 4.383549664906676 0 0 0
228 2 1 4.825080485458857 2.788285001131523 -0.6848635435789068 0 0 0
4 1 1 1.8577134117783713 0.8440482922607562 3.4128282649373842 0 0 0
2 1 1 1.8778570723843182 0.9176679447420193 0.8799593708937259 0 0 0
450 3 1 1.3576684118888236 4.81727192589238 -0.6478058873677887 0 0 0
454 3 1 1.3364242117972958 4.807514292978536 4.451721712738107 0 0 0
452 3 1 1.277856430241186 4.848121819082668 1.9413311921774477 0 0 0
453 3 1 2.0508277266206507 5.212950262437661 3.1823743745195854 0 0 0
451 3 1 2.0826520612228303 5.209986596264645 0.6770426132188696 0 0 0
455 3 1 1.9126926427319186 5.3664791331580854 5.823695790632777 0 0 0
6 1 1 1.6158957290442328 0.7760439774095301 6.023240506833116 0 0 0
2691 13 1 9.092752165025342 1.1048293161560283 2.353772945173863 0 0 0
2915 14 1 12.873943810018067 3.1469835915049975 1.8551901468036296 0 0 0
2917 14 1 12.940431008888156 2.9655495237499654 4.342524565936037 0 0 0
2914 14 1 13.550603261937091 2.6321995352118326 0.5864106852440598 0 0 0
2916 14 1 13.789366537777765 2.909915786880705 3.093376220713748 0 0 0
2693 13 1 9.016087210256835 1.0108293901011622 4.918824089358161 0 0 0
2913 14 1 12.711836497239197 3.0851503072322544 -0.6511349570917958 0 0 0
2689 13 1 8.963478889437889 1.045467750096058 -0.2557708108863743 0 0 0
2690 13 1 9.69375645163482 0.5987927451138197 1.0276211435649363 0 0 0
3139 15 1 9.474261536271438 5.203832037503174 3.1863509894552804 0 0 0
3137 15 1 9.559758848824838 4.995782005996399 0.5882251493153345 0 0 0
3138 15 1 8.929932885263941 5.681578844724741 1.8349074557683416 0 0 0
3360 15 1 8.823916587062138 5.326613947618072 -0.7140976157324607 0 0 1
3140 15 1 8.753094376174172 5.555963747914542 4.413067119934832 0 0 0
2918 14 1 13.633640279465245 2.65452356093571 5.6260726333124405 0 0 0
2692 13 1 9.866259724562868 0.9433380056184462 3.6557616580482506 0 0 0
676 4 1 4.997326506719153 7.236076745351592 2.214243613228244 0 0 0
674 4 1 4.80584166690678 7.454268516345779 -0.2897632673303314 0 0 0
678 4 1 4.981321467724313 7.002846347946019 4.834294395141948 0 0 0
675 4 1 5.568383454817965 7.919950943419906 0.9204895472919059 0 0 0
677 4 1 5.501657440154976 7.803647271978031 3.5738313638540413 0 0 0
900 5 1 1.9715900824026873 9.720634298163164 0.6679625421450335 0 0 0
902 5 1 1.4961697940163046 10.062212061872438 3.0836459996803427 0 0 0
901 5 1 1.1596098450220527 9.192100225638798 1.8845042323335148 0 0 0
903 5 1 1.0031193895483723 9.443485138373703 4.418785982932484 0 0 0
899 5 1 1.3450057380670406 9.259471161854112 -0.6695384617797673 0 0 0
1122 6 1 5.1151461379820615 11.538715697172764 -0.39140173422177327 0 0 0
1126 6 1 5.26844527295062 11.70123160661543 4.695326687710368 0 0 0
1125 6 1 5.684576421109376 12.206032161400659 3.2740853823976 0 0 0
1124 6 1 5.057076307694554 11.58348469782992 2.024141021012161 0 0 0
1123 6 1 5.505938412040674 12.304008630372007 0.7692367683228052 0 0 0
1349 7 1 1.1205337896212544 13.782245021519978 4.491666677470442 0 0 0
1347 7 1 1.417746015576772 13.672903079967039 2.0165898768483173 0 0 0
679 4 1 5.594993056292177 7.681636378576146 6.101389158100491 0 0 0
3364 16 1 13.54966648285558 6.711435402968313 3.328469559620281 0 0 0
3362 16 1 13.697057190967975 7.018030740155341 0.7103726010274267 0 0 0
3361 16 1 13.010732757264337 7.666515347317708 -0.4353883610057506 0 0 0
3365 16 1 13.240604308822075 7.534498948411052 4.600208694538492 0 0 0
3363 16 1 13.20674539076908 7.446647603109358 2.0758115902164844 0 0 0
3589 17 1 9.113874360677599 10.198705462998117 4.618119436463961 0 0 0
3587 17 1 9.046029232897867 10.079103665605741 1.9878449270162517 0 0 0
3588 17 1 9.791700624086817 9.939496126343437 3.329754800329974 0 0 0
3586 17 1 9.633215347790026 9.29322782441618 0.8281696351663355 0 0 0
3585 17 1 8.820668810814672 9.623289774538671 -0.4244957051197247 0 0 0
3812 18 1 14.046255512816908 11.526179223850676 3.368187585909795 0 0 0
3810 18 1 14.080001534462367 11.470643081463903 0.8090109561270813 0 0 0
3813 18 1 13.20250136398844 11.847589985409885 4.600459091077906 0 0 0
3811 18 1 13.212280915253736 11.485489956191083 2.073625757143184 0 0 0
3809 18 1 13.163935031653294 11.42716794371634 -0.40200099216267793 0 0 0
3814 18 1 13.85749052611638 11.53599705845838 5.927062355170148 0 0 0
4034 19 1 10.13595959840398 13.892880652708305 0.8577438457133453 0 0 0
4036 19 1 10.276882657501517 14.035008698462057 3.410735816769451 0 0 0
1345 7 1 0.9860394747133805 13.842319632224942 -0.45043829326970175 0 0 0
1346 7 1 1.8200488924617202 14.38133068653392 0.7174195043073501 0 0 0
1348 7 1 1.7248797320140294 14.511083848338474 3.2927998168322397 0 0 0
1570 8 1 5.371815879640006 16.172165323862163 1.9185623091924948 0 0 0
1572 8 1 5.167809686714599 16.336751687839293 4.37945554142049 0 0 0
1571 8 1 6.007066587054701 16.772403854533817 3.185778803987499 0 0 0
1569 8 1 5.965946867735285 16.687122260351554 0.6390935566703622 0 0 0
1792 8 1 5.300843377440471 16.17251491427429 -0.6529754049568897 0 0 1
1793 9 1 1.4150778949720995 18.25587072570924 -0.664435394830404 0 0 0
1795 9 1 1.3615388764186114 18.416072403805202 1.815322767188369 0 0 0
1797 9 1 1.2639852130464064 18.421150853035257 4.4025218258866525 0 0 0
1796 9 1 1.8714809348067392 19.019294063541825 3.138364011311979 0 0 0
1794 9 1 2.18313316534989 18.72522532368612 0.5794046565071544 0 0 0
1573 8 1 5.854510632851775 16.701209942863535 5.669047940214156 0 0 0
1350 7 1 1.186362704824468 14.650004965902209 5.782657659140684 0 0 0
4038 19 1 9.90489537726055 14.00889608465641 5.891896166612191 0 0 0
4035 19 1 9.623614036269824 14.500480416080116 2.1260368275138495 0 0 0
4033 19 1 9.586455647639815 14.506016547769581 -0.43250034885975674 0 0 0
4037 19 1 9.72698993015795 14.807017593342692 4.638067134911609 0 0 0
4258 20 1 13.466027144238648 15.517101962984976 0.9643666619286759 0 0 0
4259 20 1 13.17166411105609 16.334616243463664 2.245320114257201 0 0 0
4261 20 1 13.074491626319695 16.355034414780597 4.7545254679808595 0 0 0
4260 20 1 13.685905861007328 15.65546161314254 3.5432451251305555 0 0 0
4257 20 1 13.246905441919429 16.22731198827987 -0.3686386567698974 0 0 0
4484 21 1 9.9270671886663 18.539469985917833 3.053935351117577 0 0 0
4482 21 1 9.974298752860943 18.46614780336481 0.4291582753659062 0 0 0
4485 21 1 9.613197819416676 19.37332383084361 4.284786123301939 0 0 0
4483 21 1 9.654022943028618 19.220615879689493 1.7195901884589428 0 0 0
4481 21 1 9.368127533730805 19.096527511182337 -0.8124745837773479 0 0 0
4262 20 1 13.642626560540858 15.832048721415847 6.091655606734171 0 0 0
1 1 1 1.3858418452232322 0.4506875950265229 -0.47074073470519273 0 0 0
5 1 1 1.4693286386250444 0.04008649680613524 4.673487008143805 0 0 0
3 1 1 1.2875467205428002 0.23764671314965857 2.105982344216577 0 0 0
2240 10 1 5.193557088066654 20.96963587682323 -0.49212902054282015 0 0 1
2018 10 1 5.16428557662974 20.86909362036012 1.9385919255413224 0 0 0
2469 12 1 5.564148284814917 25.99156934130652 3.0187344397343683 0 0 0
2467 12 1 5.370317679471047 26.103341023040546 0.43625649911423636 0 0 0
2466 12 1 5.1648444893855725 25.219554139054264 -0.7767484780853257 0 0 0
2468 12 1 4.9590917548273 25.440530259247126 1.725542600069081 0 0 0
2470 12 1 5.308798093202781 25.10157268255924 4.248328881954699 0 0 0
2020 10 1 5.037766021423498 20.882879833754853 4.4625047028000555 0 0 0
2019 10 1 5.93714294890708 21.133271833113394 3.2176459904354333 0 0 0
2017 10 1 6.07993245009123 20.8830040337562 0.725193039693889 0 0 0
2245 11 1 1.3209673725289968 22.730924575011574 4.359923584840217 0 0 0
2244 11 1 1.7732518801436918 23.331469976058536 3.0353242143296457 0 0 0
2242 11 1 1.8892010537729118 23.15375250184868 0.5716266951672604 0 0 0
2243 11 1 1.3027715248992169 22.495440851121153 1.8650209957217214 0 0 0
2241 11 1 1.2433316599928153 22.464220295226276 -0.6370570559086011 0 0 0
4706 22 1 13.71573005703869 20.634491705616984 0.5472469426775906 0 0 0
4708 22 1 13.691894851292407 20.47160605689567 3.0589675597546586 0 0 0
4710 22 1 13.58944019424215 20.109182343317055 5.593740545824629 0 0 0
5155 24 1 12.755054085257868 25.297493110758996 2.1986209037920657 0 0 0
5153 24 1 12.738870822099374 25.462586325377195 -0.31105520170101253 0 0 0
5157 24 1 13.044625743551428 25.405334413531264 4.756266207527537 0 0 0
5154 24 1 13.617468696935196 25.254511284516706 0.9447449490628324 0 0 0
5156 24 1 13.659471296479643 25.04033964832258 3.4198521490256706 0 0 0
4705 22 1 13.017702446703781 21.195077972976843 -0.7023039827530507 0 0 0
4707 22 1 13.407565699593896 21.367771605381588 1.8455953540292773 0 0 0
4709 22 1 13.166594724608826 20.977404401283355 4.37649506708482 0 0 0
4929 23 1 9.023733541379924 23.75146915151026 2.0163221302177723 0 0 0
4931 23 1 9.187990317692599 23.958446176168035 4.600703170002446 0 0 0
4930 23 1 9.7209349508114 23.319094751236584 3.321327112850737 0 0 0
5152 23 1 9.70404346649641 23.34612258944781 0.7448545932483319 0 0 1
5151 23 1 9.141011740734806 23.684622800456378 -0.5903351854815929 0 0 1
4932 23 1 9.536847037692581 23.161568144567177 5.857639627517821 0 0 0
2694 13 1 9.745799851935956 0.8821296040121214 6.248656952640598 0 0 0
5158 24 1 13.820461384553207 24.832377668226655 5.929735548387268 0 0 0
233 2 1 5.728388024836404 3.2543660800917555 5.6474679309562825 0 0 0
236 2 1 4.848880998228734 2.674287119909667 9.40164763595853 0 0 0
234 2 1 4.932935669591302 2.9326222771153767 6.8892732006749515 0 0 0
235 2 1 5.632212479544481 3.146148169958499 8.229141042876753 0 0 0
237 2 1 5.510083578294962 2.9512530788927327 10.761329412321166 0 0 0
238 2 1 4.867620434638167 2.3170839477577156 11.9864489521975 0 0 0
8 1 1 1.5906903246447581 0.8078139374021424 8.597916637803607 0 0 0
10 1 1 1.5484515529778826 0.8788440759162415 11.134744655991561 0 0 0
456 3 1 0.9861553884115968 5.111129980676035 7.003756046350121 0 0 0
458 3 1 1.0048940601194898 5.0132908942172945 9.617338671914341 0 0 0
460 3 1 1.1401561623402434 4.886408624053267 12.183330356267284 0 0 0
459 3 1 1.9230657196741197 5.158293866744133 10.847061724195187 0 0 0
457 3 1 1.7449973683930426 5.330053686987137 8.3220983292485 0 0 0
11 1 1 1.028024974679219 0.12482966721557556 12.350137327080088 0 0 0
3141 15 1 9.600494422589584 5.448311268903321 5.655348711949574 0 0 0
2921 14 1 12.848338304903994 2.9443890048170993 9.456601846058486 0 0 0
2919 14 1 12.906056991670786 2.987606626358135 6.906811224309216 0 0 0
2922 14 1 13.223043460453535 2.1389120165338404 10.705695536010086 0 0 0
2920 14 1 13.508691691817123 2.42998425936487 8.18120881757869 0 0 0
2695 13 1 8.858511234667498 1.0222018093360625 7.468421462110657 0 0 0
2699 13 1 8.689286173452658 0.5434211293787824 12.554296361974417 0 0 0
2923 14 1 12.675536566629656 2.69834190556128 12.088568710490875 0 0 0
2697 13 1 8.817475092903713 0.5901245800331386 10.027942292335666 0 0 0
3143 15 1 9.485863766508693 5.056914471180176 8.16825969825796 0 0 0
3145 15 1 9.470653297467766 5.132055121685779 10.752812560912277 0 0 0
3142 15 1 8.831303449182116 5.729127163505283 6.930268440227511 0 0 0
3146 15 1 8.878167066855006 5.754045754838708 12.005381260052626 0 0 0
3144 15 1 8.939424311812354 5.635891447696681 9.447378032873317 0 0 0
2698 13 1 9.58206697608121 0.2819047656176641 11.310734901831955 0 0 0
2696 13 1 9.687591985499013 0.7769587639524886 8.75601783519929 0 0 0
904 5 1 1.8173389428096633 9.906819656223398 5.662516791143479 0 0 0
1127 6 1 5.812877122452724 12.41442220014146 5.935659000637202 0 0 0
682 4 1 5.05773749284786 7.270801530126686 9.90092209265288 0 0 0
684 4 1 5.060408222170437 7.180623479570347 12.41049757503106 0 0 0
680 4 1 5.029562456868582 7.084012528895859 7.345159458115646 0 0 0
681 4 1 5.670695883515621 7.678114784980352 8.604286350269387 0 0 0
683 4 1 5.701662574778682 7.769297977539461 11.205173841232138 0 0 0
906 5 1 1.4821254120077823 9.79696850016176 8.16095363350857 0 0 0
908 5 1 1.5363811911203378 9.593239280643157 10.724605519575567 0 0 0
907 5 1 1.3737739148569779 8.878902106674236 9.394555398090173 0 0 0
905 5 1 1.5175423432001325 9.012145552328613 6.9052131295973425 0 0 0
909 5 1 1.5541917268769954 8.759776571722817 12.030991039669452 0 0 0
1128 6 1 5.1717742091862275 11.790974186515898 7.177559749778885 0 0 0
1132 6 1 5.245234009300623 11.35549561737967 12.192592873672774 0 0 0
1130 6 1 4.967072590111467 11.73419597818123 9.675727612642909 0 0 0
1129 6 1 5.711623547327147 12.318068026138313 8.501915885724168 0 0 0
1131 6 1 5.530719686157111 12.206311539772374 10.972134953533859 0 0 0
1355 7 1 1.1601751225141366 13.445948014279258 12.23467058473851 0 0 0
3366 16 1 13.641053879635285 6.9045580080224696 5.90944808459699 0 0 0
3590 17 1 9.92506379036417 9.979408698611216 5.868752319203029 0 0 0
3370 16 1 13.348434875797178 6.449299143589166 10.90449185280821 0 0 0
3368 16 1 13.441495919753368 6.876626385586274 8.351319418515821 0 0 0
3369 16 1 12.77532628818437 7.255631994116317 9.702832132826716 0 0 0
3367 16 1 12.744845086220028 7.346631151004864 7.085827857367127 0 0 0
3371 16 1 12.771788501849509 6.910729870482429 12.229181441264242 0 0 0
3593 17 1 9.117616724987261 9.421391106870718 9.691271024471797 0 0 0
3591 17 1 9.086642829611321 9.911756329444458 7.132507284807012 0 0 0
3592 17 1 9.869997754157916 9.49794661841684 8.38441461924106 0 0 0
3594 17 1 9.825382417285041 9.25282116601517 11.04508647231542 0 0 0
3595 17 1 8.976895743816693 9.752025928144805 12.196688550261404 0 0 0
3818 18 1 13.391003227761233 11.35871819003872 11.050334811632897 0 0 0
3816 18 1 13.720174459439546 11.552396231403812 8.490238118836013 0 0 0
3815 18 1 12.992433467408425 11.799724099169199 7.149529920447311 0 0 0
3817 18 1 12.808982434319601 11.867305325740402 9.700105775462323 0 0 0
3819 18 1 12.645350796886431 11.892632467510882 12.292997360727762 0 0 0
1798 9 1 1.736481677865741 19.009689784593323 5.73618253573175 0 0 0
1351 7 1 0.9973253465763483 13.879551618966364 7.062358695308953 0 0 0
1353 7 1 1.3432804204673026 13.524078270140802 9.641907519179798 0 0 0
1352 7 1 1.2887167754741775 14.531885858564905 8.456484773357394 0 0 0
1354 7 1 1.3256003228840965 14.308873946370332 10.982330584982781 0 0 0
1574 8 1 4.989133252209842 16.493062480823507 6.993946626632466 0 0 0
1576 8 1 4.962733275642731 16.41619273583105 9.569320333440139 0 0 0
1575 8 1 5.741833573565709 16.88312782512438 8.304041648489857 0 0 0
1577 8 1 5.604894690911564 16.61333449884036 10.95860399680322 0 0 0
1578 8 1 4.831968411671025 16.124288903907743 12.204395796400696 0 0 0
1801 9 1 1.1924971315949913 18.25011726948203 9.593129834357624 0 0 0
1799 9 1 1.0944034424236238 18.43237190205802 7.0068287509004215 0 0 0
1803 9 1 1.2406683481484864 18.087227730753973 12.204878944205982 0 0 0
1802 9 1 1.8255009340339192 18.68975030261807 10.930820693373398 0 0 0
1800 9 1 1.787964098880932 18.878911302392712 8.340478734163655 0 0 0
2026 10 1 4.641881294510608 20.939968676314585 12.02575084448146 0 0 0
2024 10 1 4.843683773261974 20.884345137770957 9.522728099760934 0 0 0
4486 21 1 10.062126526529758 18.935887738656547 5.637159267885833 0 0 0
4042 19 1 9.439712544029307 13.978363944366533 10.941284229017004 0 0 0
4040 19 1 9.54894851094509 13.874460129827005 8.411576009074475 0 0 0
4039 19 1 9.462115639135808 14.734689782597066 7.103231453795036 0 0 0
4041 19 1 9.293585595621888 14.80656914093241 9.64335109112775 0 0 0
4043 19 1 9.319718623106258 14.82725047315917 12.20429539811363 0 0 0
4265 20 1 13.240976584403885 16.423166012480163 10.062138252930295 0 0 0
4263 20 1 13.288184499107825 16.59215874490238 7.428413282774013 0 0 0
4267 20 1 12.966653213258807 16.35197713340943 12.523499232458867 0 0 0
4266 20 1 13.36330560878545 15.5626641000249 11.271287228531797 0 0 0
4264 20 1 13.515113984345215 15.80577141409914 8.692986919768215 0 0 0
4490 21 1 9.17945044616709 18.725959616679248 10.741266477460753 0 0 0
4488 21 1 9.696436354179374 18.72872931116568 8.299774915494618 0 0 0
4491 21 1 8.529282811558478 19.267548752838962 11.995748227703217 0 0 0
4489 21 1 8.866526614970908 19.390606841702834 9.419165957795917 0 0 0
4487 21 1 9.159869986146111 19.20400263757236 6.910353523784355 0 0 0
4714 22 1 13.546097691617067 20.13486634202821 10.78505971750115 0 0 0
2021 10 1 5.872431041278615 20.97249658500361 5.7527260911475215 0 0 0
7 1 1 1.3772827230067428 0.02907464452625355 7.327280849511411 0 0 0
9 1 1 1.3296001437538585 0.06695229156164198 9.87734929859063 0 0 0
2471 12 1 5.6642378829305065 25.814338812880603 5.580369117788471 0 0 0
2246 11 1 1.7168822787061697 23.317713036366307 5.730053831011029 0 0 0
2473 12 1 5.609864806444985 25.560737514503597 8.20301472107306 0 0 0
2475 12 1 5.454955003560024 25.522024488680117 10.75015866503093 0 0 0
2472 12 1 5.439040367910771 24.944662622164483 6.835308876459326 0 0 0
2476 12 1 5.020325325266796 24.766870402218395 12.01548298987774 0 0 0
2474 12 1 5.290817301464611 24.742539470645955 9.469325123544909 0 0 0
2022 10 1 4.954281789299335 20.86140254195488 6.944580126372934 0 0 0
2025 10 1 5.661503308455982 21.00527228952924 10.887035266072793 0 0 0
2023 10 1 5.7015925485335766 21.03214247571448 8.265909620112797 0 0 0
2250 11 1 1.8032610711894996 23.241769061814807 10.786289134666342 0 0 0
2251 11 1 1.324544600912343 22.493912409975454 12.054604358356 0 0 0
2247 11 1 1.4613070032329945 22.454550584181977 6.989093279588442 0 0 0
2248 11 1 1.915976609861937 23.183469963531042 8.202614004335242 0 0 0
2249 11 1 1.5625224238763213 22.44696034666307 9.517438423837676 0 0 0
4712 22 1 13.657441512352284 20.17615621562906 8.173810638922744 0 0 0
5161 24 1 12.99549608482393 25.186209203097423 9.799734317429557 0 0 0
5159 24 1 13.070831898631639 25.1797973819049 7.211453984673922 0 0 0
5163 24 1 12.697205275954813 24.77332631658332 12.275107992839454 0 0 0
5162 24 1 13.614080062193633 24.585842460416554 11.09307804207798 0 0 0
5160 24 1 13.85272056874533 25.049225038397733 8.507074519754465 0 0 0
4711 22 1 13.080833706823167 20.716149933258226 6.920875728591051 0 0 0
4713 22 1 13.002227549487975 20.65212667389329 9.436830969131003 0 0 0
4715 22 1 12.773354290882855 20.68283773287813 11.952168753266692 0 0 0
4933 23 1 8.961789671441563 23.77800084817508 7.1119282362012335 0 0 0
4934 23 1 9.208180219877644 23.04266663635733 8.455143801242048 0 0 0
4935 23 1 8.711697881717656 23.728161696387044 9.705991924727964 0 0 0
4937 23 1 8.599212886210836 23.439424042937265 12.194714421114845 0 0 0
4936 23 1 9.246254057335996 22.983314315310825 10.896144215632763 0 0 0
239 2 1 5.455734155192869 2.897707910066375 13.290749776070093 0 0 0
241 2 1 5.382673189920024 3.0747244356902574 15.845939598574525 0 0 0
240 2 1 4.799062256877483 2.354303650623983 14.616246708718348 0 0 0
242 2 1 5.011146402679042 2.3267404847411117 17.139001923848408 0 0 0
243 2 1 5.401810457762022 3.06299767958419 18.39837113786916 0 0 0
464 3 1 1.126810690151259 4.559136996227167 17.364170905380238 0 0 0
462 3 1 1.2367959463706535 4.561849906082792 14.711908642766522 0 0 0
461 3 1 1.9794703059768164 5.019443851779032 13.489252537535492 0 0 0
465 3 1 1.5603101634726668 5.133953606437967 18.64607845728622 0 0 0
463 3 1 1.7277385126024254 5.111228921982008 16.086039499052617 0 0 0
244 2 1 5.088162348353041 2.251169493153827 19.649128819448965 0 0 0
12 1 1 1.3167398692103405 0.8393736187042378 13.693727498352164 0 0 0
16 1 1 1.9010091246597414 0.4936753464689475 18.83823182679803 0 0 0
14 1 1 1.743823596986717 0.7105608317827872 16.26062902119026 0 0 0
15 1 1 1.44866536816513 26.78729554643001 17.52415039140729 0 -1 0
17 1 1 1.0616861603861416 0.02616044776962098 20.04075191848145 0 0 0
466 3 1 1.1452696318050581 4.433935272189798 19.9538449768821 0 0 0
2924 14 1 13.174786156630072 1.9352607027297006 13.302588797034694 0 0 0
2925 14 1 12.570651158222544 2.4576835192066224 14.626797818506839 0 0 0
2927 14 1 12.719426430682642 2.7516029868980456 17.208363519504527 0 0 0
2926 14 1 13.307383496300416 2.190164486276014 15.920036553014299 0 0 0
2928 14 1 13.436465497196888 2.4116608657996186 18.534403423647014 0 0 0
2703 13 1 8.289113094997658 0.7533605437060517 17.53356971373552 0 0 0
2701 13 1 8.452178682583432 0.5104936742204041 14.99998011717835 0 0 0
2929 14 1 12.948622929251172 3.104770410398929 19.828751272768812 0 0 0
3151 15 1 9.59221361415832 4.376484999192805 18.29016597867137 0 0 0
3149 15 1 9.205788312172832 4.775520013557883 15.835966091054 0 0 0
3147 15 1 9.266652549548711 5.07884728055024 13.251266647693676 0 0 0
3150 15 1 8.937748724592057 5.278155391248533 17.230645764368347 0 0 0
3148 15 1 8.858977845038748 5.717887198941993 14.619386051242564 0 0 0
2705 13 1 8.183976240320638 0.6454740132865642 20.06833425491608 0 0 0
3152 15 1 9.2785840773563 4.980554455852413 19.68407354174039 0 0 0
2702 13 1 9.205505960061583 0.3881518841975028 16.30428527290522 0 0 0
2704 13 1 9.038659909835143 0.41390532030493277 18.835951665054708 0 0 0
2700 13 1 9.327098699077984 0.14639550839500975 13.81726326633454 0 0 0
686 4 1 5.008287629559653 6.952812790779187 14.953079094846899 0 0 0
688 4 1 4.804238615538345 6.986021918155733 17.52954163405724 0 0 0
685 4 1 5.7194703744629765 7.518306960486323 13.746149433070592 0 0 0
910 5 1 1.5750623431573294 9.520683207863096 13.359331793460184 0 0 0
689 4 1 5.510859936358254 7.519862430790965 18.786516464450887 0 0 0
687 4 1 5.716641662190647 7.24018994001545 16.27933286663384 0 0 0
912 5 1 1.700359105197354 9.501122183802169 15.81685098840956 0 0 0
914 5 1 1.5380796171997801 9.75035520559875 18.307607758191384 0 0 0
911 5 1 1.5700359918521467 8.600834090623978 14.532988152479257 0 0 0
913 5 1 1.445954236265424 8.78661658912008 17.110134993231828 0 0 0
1134 6 1 5.028206040777901 11.350369126994886 14.805917462095223 0 0 0
1136 6 1 4.968840592077811 11.554545734386041 17.40006398800916 0 0 0
1133 6 1 5.655827198859802 11.93458540201852 13.55152007625049 0 0 0
1135 6 1 5.298542228794001 12.250679192484471 16.066290899667944 0 0 0
1137 6 1 4.928747604703766 12.461966187668077 18.591716322137113 0 0 0
690 4 1 4.788169843867103 7.271248907067504 20.073815231541133 0 0 0
1357 7 1 1.3219406130316742 13.251487851516334 14.785181082275745 0 0 0
3372 16 1 13.29732088418909 6.259953079534255 13.56452645899913 0 0 0
3376 16 1 12.966468579664348 6.581449030982828 18.709677368182 0 0 0
3374 16 1 13.01765831649997 6.222805718701296 16.143867672523054 0 0 0
3596 17 1 9.581898534375728 9.374124013526863 13.529867150938117 0 0 0
3373 16 1 12.603675355581746 6.806042129815399 14.810485576141758 0 0 0
3375 16 1 12.500201546397 7.012142862097199 17.3470594008469 0 0 0
3599 17 1 8.756911425306894 10.149338872744263 17.281570721443924 0 0 0
3597 17 1 8.89286309344838 10.062958296034914 14.684226878467527 0 0 0
3598 17 1 9.260106382564416 9.426421444986643 16.012325455373364 0 0 0
3600 17 1 9.12552909472606 9.468287423627515 18.60288227541214 0 0 0
3824 18 1 13.346972045805577 11.69693384804056 18.656825951041252 0 0 0
3822 18 1 13.155313500607623 11.520123004821768 16.19977668204773 0 0 0
3821 18 1 12.704436519538927 12.085002875308241 14.82283834261833 0 0 0
3823 18 1 12.503028962963203 12.061195067935294 17.45388164021632 0 0 0
3820 18 1 13.09844813414934 11.24483244644346 13.628824752816028 0 0 0
3377 16 1 12.278346014190948 7.267628740582 19.893845600176146 0 0 0
3601 17 1 8.530364872049365 10.35883182194005 19.757522834684185 0 0 0
3825 18 1 12.606608214630374 12.14070002633315 19.907158764358268 0 0 0
1359 7 1 1.1295075023899748 13.366234532915126 17.319394102901427 0 0 0
1360 7 1 1.6332051698392571 13.937467766661282 18.64494846770919 0 0 0
1579 8 1 5.422106628757265 16.556444615872362 13.563653976356045 0 0 0
1356 7 1 1.570475252620506 14.112282885488481 13.54781295556739 0 0 0
1358 7 1 1.7788279031619347 13.90790390168537 16.077992086820313 0 0 0
1580 8 1 4.716376948515233 16.176258604533363 14.854928568494199 0 0 0
1583 8 1 5.446857418200331 16.79250592722448 18.76726494261086 0 0 0
1582 8 1 4.668513467225909 16.458174768699568 17.44927594685078 0 0 0
1581 8 1 5.517226086936523 16.398317941526294 16.149968797417287 0 0 0
1807 9 1 1.255861631702043 17.86030646923863 17.147210837752336 0 0 0
1805 9 1 1.0235858969391414 18.09156447155824 14.679880029555818 0 0 0
1804 9 1 1.792992542734705 18.58074117876766 13.495824318721283 0 0 0
1808 9 1 1.701128413649306 18.53246872425538 18.539055911060785 0 0 0
1806 9 1 1.6005994306044986 18.723988461565234 15.910055937655503 0 0 0
1809 9 1 1.1559680979810976 17.729303096877313 19.731517657488165 0 0 0
1361 7 1 0.8446233598676056 13.735200792850494 19.88025906168362 0 0 0
4044 19 1 9.209259237064314 14.030040031269143 13.48788686710041 0 0 0
4048 19 1 8.761708032774793 13.890141967475884 18.609585272234117 0 0 0
4046 19 1 9.076682676423323 13.978824554522665 16.006800212957344 0 0 0
4045 19 1 9.090695850692304 14.83134527482514 14.742633263936064 0 0 0
4268 20 1 12.971763481446825 15.53669432550359 13.71462870247846 0 0 0
4270 20 1 13.340054032230707 15.713732461988828 16.194860945595074 0 0 0
4047 19 1 8.867014395022737 14.744287660059234 17.300643605069943 0 0 0
4269 20 1 12.816923774622575 16.384250560510623 14.94138695751014 0 0 0
4271 20 1 12.934274489241297 16.491055837292134 17.533832571482233 0 0 0
4272 20 1 13.485395926258006 15.930241140722483 18.875126268922706 0 0 0
4273 20 1 12.901207343409038 16.66211361195949 20.06169749913512 0 0 0
4496 21 1 9.262073854841526 18.50145229298 18.454486803939076 0 0 0
4495 21 1 8.789043231261605 19.1638745745385 17.160262253596308 0 0 0
4493 21 1 8.46294271092974 19.075860635181474 14.592275643834192 0 0 0
4494 21 1 9.21099637907991 18.583640137514013 15.793553175386435 0 0 0
4492 21 1 9.126799974599004 18.706788174065988 13.283999767956276 0 0 0
4497 21 1 8.645442319410181 19.091604365445047 19.793303691717092 0 0 0
4049 19 1 8.309584471562669 14.679420802110556 19.788640303411256 0 0 0
13 1 1 1.0486403340475965 0.1175135178130565 15.0544025835929 0 0 0
2477 12 1 5.507678040020811 25.328241912086614 13.348481256019069 0 0 0
2479 12 1 5.065162604321132 25.456035806523882 15.885399633895918 0 0 0
2481 12 1 4.956662884669489 25.325082815121863 18.37904033926044 0 0 0
2478 12 1 4.644860732071426 24.746243737620457 14.559250762660199 0 0 0
2480 12 1 4.340673039953338 24.872836123775066 17.07680060755956 0 0 0
2482 12 1 4.347988968127172 24.796291707054102 19.697276142683105 0 0 0
2027 10 1 5.433503464803916 21.020847757546086 13.305065017517853 0 0 0
2028 10 1 4.497029336780544 21.033191982892795 14.544642801446727 0 0 0
2030 10 1 4.366967244322656 20.954150441193857 17.04951694859295 0 0 0
2252 11 1 1.2461799612975613 23.30625419797048 13.329836123286386 0 0 0
2029 10 1 5.2473219738177415 21.222960399933328 15.810477616567578 0 0 0
2254 11 1 1.13184169722263 23.24152690881723 15.876129068484552 0 0 0
2256 11 1 1.0762797720866968 23.277575920837027 18.49911852589679 0 0 0
2253 11 1 1.0072864995657567 22.46127757784475 14.556325095071719 0 0 0
2255 11 1 0.556146232140024 22.68767806206486 17.175044494506494 0 0 0
2031 10 1 5.29803831812624 20.951803270119644 18.303075991529965 0 0 0
2032 10 1 4.498699498845185 20.752377291654042 19.637881076399477 0 0 0
2257 11 1 0.4436631656243455 22.641351853977202 19.694520631845133 0 0 0
4716 22 1 13.447379534655012 20.346646554556745 13.29705568433892 0 0 0
4720 22 1 13.379047338957898 20.634697835471595 18.327875445272028 0 0 0
5165 24 1 12.729873516897575 24.995859341988538 14.763100877322753 0 0 0
5167 24 1 12.653967146304709 25.24965981781883 17.30404978017372 0 0 0
5166 24 1 13.314697556454142 24.591630686202098 16.111102410444037 0 0 0
5164 24 1 13.449430939721717 24.379578520113373 13.5587073481675 0 0 0
5168 24 1 13.240108122573679 24.740657390363847 18.57519764350423 0 0 0
4718 22 1 13.372597655348407 20.304319995113396 15.788465220301326 0 0 0
4938 23 1 9.232733519966397 23.072979789009146 13.497244949243042 0 0 0
4717 22 1 12.60276598141229 20.559156577590738 14.524067399383997 0 0 0
4719 22 1 12.583526242253862 20.582252854361993 17.02005054923268 0 0 0
4941 23 1 8.435830843753125 23.45527766351577 17.287428206442804 0 0 0
4939 23 1 8.58272722984099 23.536523728249165 14.795699215718468 0 0 0
4940 23 1 9.17121466038241 22.888086587790923 16.025951865886523 0 0 0
4942 23 1 9.220706404752693 23.106198852997675 18.59533064509558 0 0 0
4943 23 1 8.425731145213115 23.402403556976555 19.848617841456406 0 0 0
4721 22 1 12.541764530653923 20.83299075987236 19.558264876621145 0 0 0
5169 24 1 12.844871393487015 25.494598274409707 19.833219010587563 0 0 0
247 2 1 5.601122250642564 3.009737233261627 23.541336272218185 0 0 0
245 2 1 5.611181651728912 2.8767282190274295 20.940939427404253 0 0 0
248 2 1 5.016776989849957 2.613992846139622 24.924216406062413 0 0 0
246 2 1 5.03867690599933 2.4417720913459107 22.301349171227546 0 0 0
20 1 1 1.4326088195268654 1.0491511912065388 23.70040246137352 0 0 0
22 1 1 1.4430089340924857 1.3256654521707845 26.226762563368897 0 0 0
249 2 1 5.68704821740981 3.268324395650911 26.061315325522372 0 0 0
18 1 1 1.4130336411807156 0.7376285441993525 21.32154993707009 0 0 0
21 1 1 0.7035643879255219 0.8918959806331948 25.019840488700662 0 0 0