LAMMPS data file via write_data, version 23 Jun 2022, timestep = 1000000

9706 atoms
2 atom types
9690 bonds
3 bond types
9674 angles
3 angle types
9658 dihedrals
3 dihedral types

0 36.89775039 xlo xhi
0 26.67072 ylo yhi
0 236.7516044 zlo zhi
0 7.448720975 0 xy xz yz

Masses

1 14
2 15

Pair Coeffs # lj/cut/omp

1 0.0914 3.95
2 0.1947 3.75

Bond Coeffs # harmonic/omp

1 449.5 1.53
2 449.5 1.53
3 449.5 1.53

Angle Coeffs # harmonic/omp

1 62.0967 114
2 62.0967 114
3 62.0967 114

Dihedral Coeffs # opls/omp

1 1.411 -0.271 3.145 0
2 1.411 -0.271 3.145 0
3 1.411 -0.271 3.145 0

Atoms # molecular

1 30 1 4.215899376242996 1.0667881833537014 5.451964517319848 0 0 0
2 30 1 5.537898113780397 0.8442890555046837 6.097973195478024 0 0 0
3 30 1 5.454687381991163 0.6889182058494124 7.683345448624344 0 0 0
4 30 1 6.702038834824592 1.0987073329442196 8.447289161243289 0 0 0
5 30 1 6.472194348894851 1.0492916224749815 9.987843446976068 0 0 0
6 30 1 7.707980894468446 1.4030319212284934 10.77733206984473 0 0 0
7 30 1 7.646505001308625 1.2869400552685453 12.285321513444185 0 0 0
8 30 1 8.98718151461344 1.4376793555106757 13.026829562942854 0 0 0
9 30 1 8.9174279898744 1.0236014864027885 14.434275961028481 0 0 0
10 30 1 10.083387840891596 1.4689832911586505 15.258881871678883 0 0 0
11 30 1 10.113308284807657 0.9982484402097052 16.704052437084965 0 0 0
12 30 1 11.35161921046953 1.5426206959014905 17.452761606078965 0 0 0
13 30 1 11.361661469504376 1.3429436536593093 18.974198153398437 0 0 0
7291 45 1 1.436431786109988 1.3857549801610558 16.980014642585445 1 0 0
663 6 1 2.6335824903101988 6.249455267342452 1.339719537777924 0 0 1
4412 28 1 11.788115718596448 23.10993281085466 1.5776127502452804 0 0 0
2057 12 1 3.372351998300516 23.183545286664522 3.1905880086301814 0 0 0
1150 52 1 18.616848102686582 12.162697143965383 22.238261983863385 0 0 0
7297 45 1 5.233619157952983 1.7325774283510083 23.377806044335166 0 0 0
2158 14 1 17.672189426674535 26.424896732629293 21.230419367691905 0 0 0
222 30 1 3.10591823361765 1.6736117317914687 1.7112781209297072 0 0 0
223 30 1 3.0552595879261553 1.7495985275812385 3.215002408601768 0 0 0
224 30 1 4.367003456883141 1.4773237248868196 3.9599994306748383 0 0 0
225 5 1 10.394585063975397 3.882402031443094 7.883977138165211 0 0 0
226 5 1 11.614257079129647 3.579483381198445 8.769638751148374 0 0 0
227 5 1 11.678820113127365 4.311464424162371 10.063010346253145 0 0 0
228 5 1 12.448710052105152 3.41747120635424 11.031917418470465 0 0 0
229 5 1 12.60469476134854 4.056245342214884 12.445625026762817 0 0 0
230 5 1 13.717011189209222 3.552047012074861 13.400735000090592 0 0 0
231 5 1 13.814848563901696 4.221471889450378 14.781297704366397 0 0 0
232 5 1 15.227726470507731 4.1679608949501095 15.412682169134554 0 0 0
233 5 1 15.027508568868324 4.08802455214023 16.902898654449018 0 0 0
234 5 1 16.306822844951633 3.8436258323848014 17.62525407548495 0 0 0
235 5 1 16.176968374528904 3.686343915309843 19.13408649603503 0 0 0
7677 47 1 2.17953631007233 6.00280961119426 16.81772832103588 0 0 0
2968 47 1 12.943583316852468 5.275241338541976 2.4168182679967267 0 0 0
4421 28 1 17.416030009964835 23.457331096852446 11.45863968331401 0 0 0
910 9 1 12.186943237345382 10.691557128265009 18.26020882629164 0 0 0
445 5 1 8.052569968395822 3.6033672743145067 3.486072624068512 0 0 0
447 5 1 9.35785963053183 3.920547045957074 5.608592976676212 0 0 0
448 5 1 10.475606928109872 3.23971594283913 6.495073685687158 0 0 0
449 7 1 8.642566005263335 6.242574853967525 12.843995042837378 0 0 0
450 7 1 9.353597881387662 5.409886883483459 13.934754122353247 0 0 0
451 7 1 9.867925466665126 6.214838073876728 15.161672735898103 0 0 0
452 7 1 10.518585331906374 5.235895879966253 16.08794105262432 0 0 0
453 7 1 11.365811665315562 5.9196937956832825 17.147651971978448 0 0 0
454 7 1 11.742338571924083 5.266769665010718 18.46527776299719 0 0 0
455 7 1 12.685853367413134 6.095393507109644 19.320924465938518 0 0 0
456 7 1 13.01880798098915 5.287398345233581 20.556943695345485 0 0 0
457 7 1 13.64835887575948 6.160330794334728 21.640885337041556 0 0 0
1539 60 1 18.43172125587384 16.525320809769905 22.061899491166685 0 0 0
974 9 1 3.2026805212892056 10.338270786460807 1.2395469935192618 0 0 0
2371 15 1 17.082494547129937 1.894739962137068 12.503801021996525 0 0 0
1538 60 1 17.151927179955024 16.59134962218854 21.295836569518425 0 0 0
4636 30 1 17.408553910432794 25.583894150765893 3.50008673355112 0 0 0
9403 57 1 2.6539605337743124 23.888215077873976 20.488572304158446 0 0 0
2153 14 1 14.459609698801337 25.291980790803034 15.723157877111095 0 0 0
9185 62 1 4.4695825702152385 22.051302741722296 12.571577486068774 0 0 0
9406 57 1 5.233057824801772 23.74849903020516 23.4393828646556 0 0 0
668 7 1 5.54135849256793 5.690106938878698 7.1870170646206315 0 0 0
669 7 1 6.445790115982661 6.530263219018 8.138444916026662 0 0 0
670 7 1 6.798996230458024 5.62133468317663 9.38342719368058 0 0 0
671 7 1 7.575047404665337 6.271699521596409 10.524738274572917 0 0 0
672 7 1 7.979276875541534 5.3747858636372845 11.714758364344386 0 0 0
673 10 1 9.206142762690634 7.829718601692353 5.616185037557833 0 0 0
674 10 1 10.403905851053961 7.438850698975615 6.50361792269909 0 0 0
675 10 1 10.29469822249574 7.887511835939199 7.955058431902144 0 0 0
676 10 1 11.516312042534825 7.5900251463056785 8.830086022438289 0 0 0
677 10 1 11.579510594225761 8.246706721306 10.169231481840539 0 0 0
678 10 1 12.901483865467206 8.123549274985345 10.926433116059401 0 0 0
679 10 1 12.999652696393545 8.732546022659221 12.304346025012471 0 0 0
680 10 1 14.389555974655778 8.574018076506588 12.814317576300438 0 0 0
681 10 1 14.353121326873085 8.396503744181237 14.322255193056822 0 0 0
682 10 1 15.712564428085885 8.184572778287158 15.083676041766331 0 0 0
683 10 1 15.502256156629388 8.058740115246994 16.55631610744762 0 0 0
443 63 1 6.715359359542668 3.5019544823768287 1.3220470224207572 0 0 1
9632 12 1 0.6663904617918175 25.796372680706924 5.861041034294137 0 0 0
4417 28 1 15.051943220013404 23.47830158491693 7.036938934393197 0 0 0
8282 5 1 1.324890449854952 12.385672170977937 5.588064899705805 0 0 0
2363 14 1 6.501246452908101 25.217410907439557 0.1596700251963409 0 0 0
895 10 1 8.164868240957357 7.61491166187892 3.239420658879604 0 0 0
896 10 1 9.429348675026171 7.680962691030165 4.09460251795847 0 0 0
897 9 1 4.363518299249597 10.500652795266237 3.543676842345227 0 0 0
898 9 1 4.293085831864852 10.087027644021353 5.064563257757555 0 0 0
899 9 1 5.603892527081417 10.470352404546512 5.80460015413502 0 0 0
900 9 1 5.5639771206412085 10.34844617988853 7.331452413221699 0 0 0
901 9 1 6.844949383251141 10.58677032293633 8.074717372585578 0 0 0
902 9 1 6.801028174458461 10.242637115957217 9.571907812861665 0 0 0
903 9 1 8.104710581192533 10.490431840070661 10.299300557144393 0 0 0
904 9 1 8.085345039710575 10.484388006992312 11.807618352125688 0 0 0
905 9 1 9.422825392616723 10.244253563569137 12.503088723871615 0 0 0
906 9 1 9.344470706195056 10.249550982558466 14.03798604341615 0 0 0
907 9 1 10.737741542617012 10.166688598513758 14.62067076398868 0 0 0
908 9 1 10.771717915067098 10.22311393912944 16.196089322074478 0 0 0
909 9 1 12.16740601428055 10.076743575455952 16.835617195085625 0 0 0
973 9 1 1.8760092418500427 10.220596992103207 0.5029269780076421 0 0 0
8959 59 1 0.8068315664596101 19.534023658967183 15.842108877078855 0 0 0
9638 12 1 3.8133775108519137 25.609382385785892 12.923847972846334 0 0 0
8742 56 1 6.844712987060221 17.542699682265155 18.41940373600905 0 0 0
8295 5 1 8.12734323156795 12.313506187134537 20.51389090195758 0 0 0
4422 28 1 17.413695528778163 23.862501472420554 12.928057797950762 0 0 0
1758 6 1 3.4044432451924744 18.584423314946818 1.5391877973265191 0 0 1
913 9 1 14.191717219283676 10.243327334307416 21.56972669524139 0 0 0
8298 5 1 10.458889003797024 12.485983922855322 23.595407349509244 0 0 0
975 9 1 3.2601923661477916 9.879765420534003 2.6668101004446307 0 0 0
1134 52 1 9.51564369330061 12.185131451107276 4.071955817485033 0 0 0
1135 52 1 9.390184233548503 12.498971983297547 5.5542195434773936 0 0 0
1136 52 1 10.716092727406267 12.44176705984252 6.256042057581437 0 0 0
1137 52 1 10.736259526096125 12.78242307626755 7.734192082240941 0 0 0
1138 52 1 12.001912029498387 12.845923117734113 8.601782125556834 0 0 0
1139 52 1 11.860613178955795 13.162744372576773 10.112223394516898 0 0 0
1140 52 1 13.053825077436832 12.593935333652553 10.908218519835554 0 0 0
1141 52 1 13.047624926040253 12.87998945476261 12.373262514425637 0 0 0
1142 52 1 14.282809796155682 12.448386198377753 13.113666526182554 0 0 0
1143 52 1 14.08136497733828 12.440988847944443 14.636716486942001 0 0 0
1144 52 1 15.335828678260912 12.025898002182206 15.40266326690322 0 0 0
2741 16 1 15.941579377013937 2.8997931318819417 1.7668151674182742 0 0 1
1599 60 1 7.078058756533554 17.04100644825467 0.7922962184969017 0 0 0
8962 59 1 3.13636610864589 19.223939201744376 18.880566287819974 0 0 0
4419 28 1 16.03376281008687 23.491057682015573 9.282539001289383 0 0 0
2056 12 1 3.3242489329606313 22.65063136516496 1.700966583482726 0 0 0
2364 14 1 6.7490664941392975 26.009168176626073 1.4715806944910552 0 0 0
1218 52 1 8.180070137162827 12.247801570575364 3.385659164478985 0 0 0
1219 10 1 6.954850039737108 14.81981089328028 9.817187803241229 0 0 0
1220 10 1 8.271982141601098 14.571244791610313 10.500547341500207 0 0 0
1221 10 1 8.167576023699656 14.720689458907385 12.063207610261511 0 0 0
1222 10 1 9.450577811129552 15.011115113530254 12.851841124669347 0 0 0
1223 10 1 9.262032324829399 14.926441825965322 14.351467009261825 0 0 0
1224 10 1 10.572408562477152 14.597513292735293 15.184246957046154 0 0 0
1225 10 1 10.502351951424034 15.044719945080539 16.650970421322445 0 0 0
1226 10 1 11.740072398547838 14.581138143558963 17.452554100854826 0 0 0
1227 10 1 11.682581847980778 15.010346380738614 18.924441172114637 0 0 0
1228 10 1 12.905912774343834 14.589146793038493 19.732713764242934 0 0 0
1229 10 1 12.656549159252023 14.71615084481086 21.209507607842806 0 0 0
3577 26 1 15.893268910199003 12.480935138741206 0.1327262393339962 0 0 1
8064 54 1 1.9905780910944653 9.863839674458168 16.74103429240538 0 0 0
912 9 1 13.007534357224246 10.5386794310504 20.639270511467984 0 0 0
221 30 1 1.69251508398404 1.8151856800814805 1.162818185091209 0 0 0
2585 55 1 10.865952291206204 0.8720593372762516 1.2701372795148218 0 0 1
3587 22 1 15.276657764659552 14.679558473525164 6.4063692151540845 0 0 0
8513 54 1 2.255529722547078 14.526561782800279 16.585430409849835 0 0 0
1438 10 1 5.020761395002065 14.715677172837152 3.738291608782435 0 0 0
1439 10 1 4.721641401402287 14.820598562311348 5.257487541796706 0 0 0
1440 10 1 5.966880178699585 14.94108032584945 6.1397498563351744 0 0 0
1441 10 1 5.679325841203215 14.956207916355057 7.609666371510182 0 0 0
1442 10 1 6.988480433570251 14.7150377376712 8.317179755459303 0 0 0
1522 60 1 8.215075690625413 17.024470654957888 3.1145515027808823 0 0 0
1523 60 1 9.571319580770348 16.92560476046127 3.8287684904399373 0 0 0
1524 60 1 9.417015442857096 17.391824680248224 5.29767239304438 0 0 0
1525 60 1 10.671845259370297 16.980303191924904 6.121622859046778 0 0 0
1526 60 1 10.502339892956535 17.249088010103385 7.611253007888716 0 0 0
1527 60 1 11.816255097394526 17.029811157818763 8.371446216387207 0 0 0
1528 60 1 11.57901009330445 16.860682825550853 9.875891461619133 0 0 0
1529 60 1 12.876436800746541 16.791421480264045 10.696896228794218 0 0 0
1530 60 1 12.806844200041368 17.1432826367217 12.211626855304226 0 0 0
1531 60 1 14.079658144860305 16.895515351947545 13.022428008230477 0 0 0
1532 60 1 13.710265464252958 16.785770350683244 14.447819657472175 0 0 0
9180 62 1 0.955717742193416 21.39650642848888 7.394089455673559 0 0 0
1772 62 1 15.987428147468703 20.97917301238902 19.236482423234552 0 0 0
1437 10 1 3.7229939187035357 14.490211290764739 2.9508276821215085 0 0 0
7292 45 1 1.318320988033518 1.7592096012503138 18.48668575557258 0 0 0
17 30 1 13.796216191753954 0.9700375607982841 23.424350858793897 0 0 0
7851 43 1 9.086437706640602 8.148233768702594 22.318913635002158 0 0 0
1600 60 1 8.12313973103401 16.38596528084712 1.7484095588504567 0 0 0
1601 9 1 8.186700911241477 19.467898288742454 10.488496300945483 0 0 0
1602 9 1 7.948194904445565 19.352103357586163 12.005083133609103 0 0 0
1603 9 1 9.279872047887165 19.30651479698746 12.78473063435117 0 0 0
1604 9 1 9.107736489343406 19.229026798778044 14.264757058391995 0 0 0
1605 9 1 10.491746553026369 18.985565783043494 14.98944391545139 0 0 0
1606 9 1 10.384815434669619 18.963362507529958 16.5280345902679 0 0 0
1607 9 1 11.776712323483592 18.837731774268896 17.205885810653232 0 0 0
1608 9 1 11.558751469312519 19.175111099528607 18.68086952268506 0 0 0
1609 9 1 12.832247242815846 18.774240215777485 19.434452945628404 0 0 0
1610 9 1 12.837000171030057 19.220740636544726 20.91260024470509 0 0 0
1435 50 1 2.4080777549429118 14.285936648513673 0.7167560341221149 0 0 1
7848 43 1 7.718110632670679 7.612502504485832 18.712914411693706 0 0 0
689 10 1 18.71253422369895 8.843455506621426 23.41586575305239 0 0 0
2160 14 1 18.394868157858284 26.5233687261602 23.635096118502766 0 0 0
667 7 1 5.254469862076306 6.4259329215768926 5.838172187422709 0 0 0
3805 23 1 17.6402068999823 17.154394303891234 3.937403978689081 0 0 0
7675 47 1 0.8518097706403122 5.823803358538925 14.64847650937944 0 0 0
1674 9 1 4.662084443799804 18.63322737960822 3.814459707542095 0 0 0
1675 9 1 4.514881258992372 18.51071628465376 5.325105250669986 0 0 0
1676 9 1 5.777557181774355 18.918642964736033 6.045604247832531 0 0 0
1677 9 1 5.696150049565506 18.913478945867322 7.567727896507293 0 0 0
1678 9 1 7.028944785991056 19.298808125248364 8.217021852019219 0 0 0
1679 9 1 6.906134574549089 19.29995598666854 9.70919058485967 0 0 0
1759 62 1 9.161398359299143 21.213067606485918 3.831142087141553 0 0 0
1760 62 1 8.946970758081886 21.36200312283669 5.365244871580227 0 0 0
1761 62 1 10.259603530961908 21.241586507393468 6.199878127329835 0 0 0
1762 62 1 10.196107576741756 21.296665442810493 7.6878341575457565 0 0 0
1763 62 1 11.46650553951503 21.281647915868366 8.50941198160037 0 0 0
1764 62 1 11.270843390486409 21.324811779437766 10.0629126158374 0 0 0
1765 62 1 12.552926968925048 21.272553107095728 10.927661679975861 0 0 0
1766 62 1 12.413121840923402 21.457806079760754 12.40911500272963 0 0 0
1767 62 1 13.691507633121441 21.20846155440121 13.183890806461665 0 0 0
1768 62 1 13.578003183317945 21.455911612967565 14.683934149681695 0 0 0
1769 62 1 14.847722149281283 21.05777683809894 15.378763476138795 0 0 0
8519 54 1 5.9117279325914165 14.702462028656996 23.109179252823928 0 0 0
666 7 1 4.293440635726736 5.7066261136100405 4.866164879346655 0 0 0
2157 14 1 17.151591728597015 25.46086983704093 20.097095833642314 0 0 0
7682 47 1 4.721161004162934 5.893158248423853 22.784343756516222 0 0 0
2974 18 1 16.03252484072648 7.711932689547768 1.9427067291524582 0 0 0
1981 62 1 8.014953274145132 20.85768937693852 1.706370315003067 0 0 0
1982 62 1 7.885825786997522 21.364776293804486 3.1106013790350056 0 0 0
1983 12 1 7.132132252200247 23.16049502335765 8.39810902036304 0 0 0
1984 12 1 7.12653633894993 23.859864870128078 9.757760596811032 0 0 0
1985 12 1 7.702859580243272 23.070233365210942 10.963464192505793 0 0 0
1986 12 1 8.023032207560385 23.96001810008422 12.154901437664744 0 0 0
1987 12 1 9.229636281370436 23.516313666393046 13.007669411787262 0 0 0
1988 12 1 9.245301759816346 24.122856372410435 14.449654407353856 0 0 0
1989 12 1 10.409221927070353 23.782716458218555 15.328699175485431 0 0 0
1990 12 1 10.319742184634675 24.112636398252036 16.83363679217005 0 0 0
1991 12 1 11.575840466389407 23.650707336976506 17.569300800646282 0 0 0
1992 12 1 11.425583675559144 23.649336507973548 19.082204983774403 0 0 0
1993 12 1 12.72258837087251 23.24555171716305 19.76715005841834 0 0 0
1994 12 1 12.664412515645267 23.431535257745985 21.24924405614332 0 0 0
1231 10 1 13.86229511368083 15.09313805036282 23.314326181560784 0 0 0
7296 45 1 3.8342002618678697 1.447118725047388 22.864688413999126 0 0 0
4035 34 1 17.643835703185438 18.896572583239784 11.040388358825895 0 0 0
1436 10 1 3.8151403088866953 14.30274497962876 1.4265996774495833 0 0 0
1146 52 1 16.348950262056306 11.862618754511697 17.70978967498341 0 0 0
2742 16 1 17.34331518003572 3.2503514011334667 2.3796230831018783 0 0 1
2967 36 1 11.62456290048861 5.031229458961886 1.7165531498242024 0 0 1
2058 12 1 4.584103009038287 22.78160244006753 4.0620720039755955 0 0 0
2059 12 1 4.597777011267095 23.523112450341607 5.327605723042589 0 0 0
2060 12 1 5.691699545513768 22.87545748225752 6.229967557945219 0 0 0
2061 12 1 5.917737273599292 23.62684894462355 7.5645964163364745 0 0 0
2141 14 1 7.675028438457495 25.233925908757097 2.400651568175361 0 0 0
2142 14 1 8.373935872244115 26.057794388873372 3.4230769143109394 0 0 0
2143 14 1 9.171897060437956 25.108263142672975 4.332051742674641 0 0 0
2144 14 1 9.4637826777128 25.84524680029411 5.627598135361456 0 0 0
2145 14 1 10.16957182857148 25.08396498502599 6.742613640490922 0 0 0
2146 14 1 10.204474010606122 25.966607801277366 8.00460454022102 0 0 0
2147 14 1 11.005087467243667 25.45983197927262 9.182918868542842 0 0 0
2148 14 1 11.442824758127463 26.37967964771786 10.306571290216343 0 0 0
2149 14 1 12.266162317168783 25.603114810997088 11.31376644106644 0 0 0
2150 14 1 12.722092717980827 26.430781153178458 12.520735199021033 0 0 0
2151 14 1 13.10796217527129 25.492573289425493 13.59207990245041 0 0 0
1773 62 1 17.380633361276033 20.928943924345848 19.898845565264384 0 0 0
9640 12 1 5.062519043590176 25.89224073168799 15.211420336492914 0 0 0
9635 12 1 1.8158637822366688 26.35732416128943 9.626412739611215 0 0 0
7294 45 1 2.461196628172165 1.2780251648429624 20.797129296290638 0 0 0
8511 54 1 0.8834650529231783 14.456399341917049 14.365414204727312 0 0 0
8518 54 1 4.95224955320271 15.389108901357387 22.193333613148702 0 0 0
7849 43 1 8.16102708724053 8.265323119341833 20.01823314680336 0 0 0
2365 15 1 13.291041138933204 1.019907819948178 5.846223455398332 0 0 0
2366 15 1 14.534050296555774 1.460027497122378 6.66518961546599 0 0 0
2367 15 1 14.511139607664889 1.6380457626751919 8.179811981026106 0 0 0
2368 15 1 15.91853208732948 1.67407544078222 8.744627628639607 0 0 0
2369 15 1 15.875457760513559 1.6829744754058575 10.279776319487574 0 0 0
4026 25 1 16.16527760042859 16.683119178626683 0.4944027181227373 0 0 1
2152 14 1 13.843067035810154 26.20596540732405 14.682489508138815 0 0 0
1145 52 1 15.19973677922203 12.464045402859838 16.889236781402502 0 0 0
15 30 1 12.629805081904676 1.062664351834464 21.214840982065414 0 0 0
2588 15 1 13.409561820179256 0.8569935507754796 4.309936193043292 0 0 0
1148 52 1 17.434198710894602 11.922840426080313 20.027837523525196 0 0 0
684 10 1 16.738463413465972 7.646196905618818 17.39902071191864 0 0 0
1540 60 1 18.352733884866225 16.70825053290662 23.576212981700984 0 0 0
9189 62 1 6.854016758490533 21.854308263955023 16.99381891834417 0 0 0
2747 47 1 14.245047422289147 5.527446200379944 5.997770957416589 0 0 0
2748 47 1 15.567492478786823 5.887356177926913 6.606541557261102 0 0 0
2749 47 1 15.431725174659315 6.239500839319834 8.123113378558736 0 0 0
2750 47 1 16.730584445518918 5.924214720852443 8.796916498660778 0 0 0
2751 47 1 16.55559831381161 6.0109633027474825 10.277660732839127 0 0 0
1980 62 1 6.740455690314218 21.017265177411968 0.8808591783682564 0 0 0
1774 62 1 17.39384775354875 20.742183629096875 21.426921182992206 0 0 0
9646 12 1 8.879732454279052 26.017512744174145 21.768632026634236 0 0 0
2969 47 1 12.90522114478236 5.144857794964309 3.9383654826545036 0 0 0
2970 47 1 14.308212791678422 5.424220010463152 4.5022810263017 0 0 0
7678 47 1 2.283160505070521 5.690244185940746 18.313150893247386 0 0 0
2154 14 1 15.204100274179298 26.082723679629446 16.80632329405332 0 0 0
4027 23 1 16.38465734084007 17.366736331110918 1.8124685884948062 0 0 0
3804 23 1 17.44964022568387 16.58770509142318 2.5221217358014285 0 0 0
3195 19 1 14.024922808072747 10.028021236156604 4.525140257781184 0 0 0
3196 19 1 13.91571779056269 9.989990305074986 6.064786108756509 0 0 0
3197 19 1 15.259350407774606 9.939137966835979 6.782768457197019 0 0 0
3198 19 1 15.1688234193753 10.178086835475964 8.295583250882302 0 0 0
3199 19 1 16.511512065444077 10.184580415992166 9.045554424168374 0 0 0
2155 14 1 15.90757358113529 25.288874242171662 17.808715072869983 0 0 0
1537 60 1 17.334055076934337 16.452901455481147 19.764383696447652 0 0 0
8065 54 1 2.1575913140365683 10.491898671021138 18.11088931204578 0 0 0
6769 41 1 0.8257985854245184 21.379090256653818 23.232436561459146 0 0 0
2587 15 1 12.135721149517789 0.8685331386444961 3.5241945456820782 0 0 0
9401 57 1 1.4680319903130172 24.0340238640996 18.156322281759216 0 0 0
914 9 1 13.935339642440685 10.420974906960147 23.07485287793411 0 0 0
9191 62 1 7.907060201320744 21.674341864928 19.255125275873468 0 0 0
7295 45 1 3.8867559553913362 1.3625889268104512 21.357881546348995 0 0 0
1217 52 1 8.3391521592178 12.084964182683402 1.8569734212915299 0 0 0
662 6 1 1.423689050089686 5.695031797383941 0.5278291807570272 0 0 1
1771 62 1 16.141253965570943 21.0325258853518 17.70866529225264 0 0 0
3583 22 1 12.852093151543123 14.64157584437775 2.023782189174188 0 0 0
3584 22 1 12.818299223361622 14.725092545713437 3.5331387369474094 0 0 0
3585 22 1 14.072930583978204 14.406990173794346 4.24764356604468 0 0 0
3586 22 1 13.919563785003943 14.659054651969813 5.7208401158762525 0 0 0
1757 6 1 2.091675838649223 18.271984403991684 0.8089107455103651 0 0 1
3201 19 1 17.84402422781087 10.358502627507193 11.191148633333139 0 0 0
1770 62 1 14.845257674308739 21.080603436539764 16.90890840034531 0 0 0
2740 16 1 15.972957556976166 3.2721498734157093 0.29608064099579867 0 0 1
4420 28 1 16.06863597873284 23.73889766543953 10.760907744001523 0 0 0
9639 12 1 3.704046349735175 25.768464311977116 14.430593438528597 0 0 0
9184 62 1 3.2536479845089286 21.454215594476402 11.857218770685279 0 0 0
4028 34 1 12.683348268857468 19.423492894736896 3.4693272198110616 0 0 0
4029 34 1 14.02699658912834 19.078001811490026 4.182481421172445 0 0 0
4030 34 1 13.985990800581792 19.44809712017471 5.713479925882925 0 0 0
4031 34 1 15.259017623951443 19.142874171117004 6.436151921576317 0 0 0
4032 34 1 15.374851663196463 19.402902325138417 7.962009901791234 0 0 0
4033 34 1 16.722919261025606 19.283306434443755 8.71434672141428 0 0 0
4034 34 1 16.460874879954932 18.936600270407872 10.133202518044456 0 0 0
9400 57 1 1.536156088703481 23.644475092473154 16.725577939204157 0 0 0
14 30 1 12.659351593830925 1.6186368814543142 19.78579616404676 0 0 0
4106 34 1 12.656397187644819 19.013561851148204 2.0064453001428597 0 0 0
4186 39 1 16.29023362859339 21.233085173689695 1.4030904492019642 0 0 0
237 5 1 17.226096734427003 4.104769816505143 21.516565146561156 0 0 0
8297 5 1 9.239433941818547 12.192836250466828 22.781418336689764 0 0 0
1995 12 1 13.9672087057518 23.186674464598788 22.037708070858464 0 0 0
3276 19 1 12.6329165907002 9.711636128304026 3.951008059047812 0 0 0
3582 22 1 11.538340234633235 14.984742317610019 1.2245878325351758 0 0 0
894 10 1 8.346857797606258 7.393654202843337 1.7449174823453664 0 0 0
4413 28 1 13.14278984615014 23.053238307096503 2.318940014442146 0 0 0
4414 28 1 12.887161849340078 23.275919764337328 3.8269363708528856 0 0 0
4415 28 1 14.140942631445952 23.42409163010054 4.67021634496028 0 0 0
4416 28 1 13.788087391314505 23.55988994304945 6.1326688113266705 0 0 0
4634 30 1 16.398887923730257 26.06705008762077 1.1500445809597608 0 0 0
446 5 1 9.440011729874584 3.4764209551932725 4.1142845359853695 0 0 0
7293 45 1 2.5066185242664676 1.2853916041696016 19.313740233794054 0 0 0
686 10 1 17.901945064754408 7.774119077168522 19.717197297423787 0 0 0
9183 62 1 3.2181945548223436 21.94976148196919 10.428971484003549 0 0 0
9404 57 1 3.9396154622963873 23.692521389281673 21.276120179984368 0 0 0
4037 34 1 18.538781475971216 18.591145362539798 13.349241327091347 0 0 0
665 6 1 3.942413376902955 6.404474647272636 3.5481590542219075 0 0 1
9181 62 1 2.2355425436766745 21.599320810211335 8.193709520954972 0 0 0
2156 14 1 16.400256965625857 26.141578653352926 18.967189062703874 0 0 0
1611 9 1 14.048563573515153 18.883737048267545 21.769777995497375 0 0 0
7837 43 1 1.0084928006856158 8.371038320333469 6.599342604129263 0 0 0
9633 12 1 0.4815118450064342 26.28407025606642 7.299905194882581 0 0 0
8745 56 1 9.030043241334877 16.753153984235507 21.56658915730804 0 0 0
7836 43 1 0.920963421296181 7.741321367680577 5.20850282680977 0 0 0
7453 46 1 1.2346845528742842 3.3776457608263133 6.913309910730495 0 0 0
9190 62 1 6.660238577632775 21.48128633151223 18.431221305163728 0 0 0
2966 36 1 11.727608953297596 4.9387061210448415 0.18394466638779902 0 0 1
3274 19 1 11.348581443362699 9.562528724566329 1.6314982533974236 0 0 0
238 5 1 18.473183466486354 4.248992838252968 22.375868928441946 0 0 0
4635 30 1 17.572372020954973 25.436534488441144 1.9656630746707007 0 0 0
2976 18 1 17.298418588211316 8.003976626827171 4.235943149408756 0 0 0
8283 5 1 1.096359376021794 12.582829059439225 7.11910200459747 0 0 0
9188 62 1 5.75752991272959 21.211526387675395 16.12747637771412 0 0 0
1216 52 1 7.036374181138901 12.164477499097067 1.0258985120911075 0 0 0
3588 22 1 15.230906973942623 14.702728095002957 7.9429862686653125 0 0 0
1535 60 1 16.348445876548997 16.69932851730176 17.464600354823926 0 0 0
8743 56 1 7.89213136619588 16.8528373417793 19.330586633265927 0 0 0
893 10 1 7.038712788416776 7.35027578130863 1.0242147622595694 0 0 0
1536 60 1 16.113007177919652 16.850375246903074 18.924346088922636 0 0 0
1147 52 1 16.348142342600575 12.442924511890144 19.10908808785083 0 0 0
9645 12 1 7.504509473427428 26.179046391193275 21.27695330645202 0 0 0
911 9 1 13.242278062383503 10.203761989914417 19.17914069859459 0 0 0
7676 47 1 0.9317866807340682 5.5383512990111186 16.113162786246118 0 0 0
9179 62 1 1.1296799110861868 21.375868913754875 5.909605689495518 0 0 0
4036 34 1 17.28703780447938 18.84409918427387 12.50199562265763 0 0 0
9637 12 1 2.556111146793205 25.918533701877553 12.092064230756678 0 0 0
685 10 1 16.616229109493293 7.961231619294369 18.92079182470843 0 0 0
9187 62 1 5.74683626945579 21.963086803980005 14.81280388075041 0 0 0
3589 22 1 16.557448265267684 14.785569713832867 8.683225567360333 0 0 0
3275 19 1 12.524267154177862 10.067773278109806 2.4390127035894014 0 0 0
1775 62 1 18.649701309933373 21.17562663772862 22.135753420023065 0 0 0
3579 20 1 17.15156512126104 12.544025320124609 2.3547288488989677 0 0 0
8731 56 1 0.7470771820534657 16.738851089782358 6.003113762320804 0 0 0
3578 26 1 16.422387484096646 11.686107926671317 1.3223548601295874 0 0 1
8966 59 1 5.338301347823905 19.469780463771674 23.390215353891517 0 0 0
2753 47 1 17.72947841030663 5.94547040717702 12.518806173242554 0 0 0
9193 62 1 9.261684748751936 21.703407954682977 21.533631437998142 0 0 0
3357 20 1 18.4433601737952 12.80230989588111 4.629535928984116 0 0 0
9644 12 1 7.470829583685546 25.95701824688547 19.753225147100075 0 0 0
2973 18 1 16.193200010128717 7.512840999442234 0.4449268660465208 0 0 0
4188 39 1 17.56095499916197 21.438875268689344 3.6145503279288693 0 0 0
7468 46 1 10.49191390523734 3.780061926925732 23.51455601783294 0 0 0
7454 46 1 2.374756449068557 3.8263458728311406 7.828108421690734 0 0 0
7455 46 1 2.0740763760075147 3.285279530594404 9.234901396711493 0 0 0
7456 46 1 3.0855850432864416 3.8164272739355094 10.240973826634745 0 0 0
7457 46 1 2.826576757744318 3.4389720677684634 11.718288809426435 0 0 0
7458 46 1 4.001268443678154 3.7226148579771166 12.651655912553531 0 0 0
7459 46 1 4.067559934292363 3.13547733742828 14.065934600197357 0 0 0
7460 46 1 5.279744483689188 3.563883157713651 14.807008135365765 0 0 0
7461 46 1 5.001749779075863 3.593457424260887 16.33033417324273 0 0 0
7462 46 1 6.342451753544198 3.68605722973344 17.051502685943603 0 0 0
7463 46 1 6.365206971044797 3.618374314369493 18.61904823686037 0 0 0
7464 46 1 7.732240575419495 3.270389739247818 19.234929137715675 0 0 0
7465 46 1 7.810137991715648 3.243100392876263 20.755511108815416 0 0 0
7466 46 1 9.164094625491899 3.6784169391751105 21.41895902319312 0 0 0
4411 28 1 11.813251230842422 23.235277643889464 0.05046826008011205 0 0 0
1534 60 1 15.067120343123548 16.934634390047307 16.778627489002396 0 0 0
9636 12 1 2.8854090100411103 25.735361053721793 10.563509708908938 0 0 0
9643 12 1 6.146655494309864 26.221362610712056 19.0372712145969 0 0 0
9186 62 1 4.528564539033267 21.504396141024216 13.965849702885453 0 0 0
8963 59 1 3.612491066949806 20.112456232973944 20.069098519354956 0 0 0
8744 56 1 7.876491143019481 17.366807418713915 20.74588456767232 0 0 0
4105 34 1 11.405464185640184 19.348695564351733 1.1820401477814344 0 0 0
7679 47 1 3.4669086306979 6.303093090936795 19.04622081838059 0 0 0
7680 47 1 3.5519991592871447 5.932279207211456 20.56108734536374 0 0 0
7681 47 1 4.86069119797421 6.179501711742845 21.27719318516378 0 0 0
5104 56 1 0.7800286762798717 4.137530278294224 23.30477884734361 0 0 0
8960 59 1 2.115267932406082 19.24615240218269 16.575524651297254 0 0 0
4423 28 1 18.681407943164132 23.7560883316125 13.646901812455477 0 0 0
687 10 1 17.705645039775213 8.4725517501202 21.082616532199566 0 0 0
9405 57 1 3.847900207990932 23.869590385687008 22.787628127491146 0 0 0
9192 62 1 8.021452681400804 21.309837711750824 20.812411849862308 0 0 0
8964 59 1 4.08158780080625 19.3223910668213 21.270601386384307 0 0 0
8062 54 1 0.9498214833707965 10.103163115790759 14.335185611017907 0 0 0
9194 62 1 9.295206480458969 21.074522675704205 22.91123337931776 0 0 0
2586 15 1 12.234207064846233 0.7157041773870725 1.9761942355137605 0 0 0
7838 43 1 1.563257402397615 7.442368986653063 7.702045486104164 0 0 0
7839 43 1 2.0002531748531744 8.327588182469551 8.899537377479925 0 0 0
7840 43 1 2.6457482088534823 7.574056596934866 10.006875241813086 0 0 0
7841 43 1 3.2634879889085404 8.46138588188848 11.077840767746418 0 0 0