LAMMPS data file via write_data, version 23 Jun 2022, timestep = 11112117

8487 atoms
2 atom types
8471 bonds
3 bond types
8455 angles
3 angle types
8439 dihedrals
3 dihedral types

0 36.89775039 xlo xhi
0 26.67072 ylo yhi
38.55011941245915 198.20148498749165 zlo zhi
0 5.0229795842787315 0 xy xz yz

Masses

1 14
2 15

Pair Coeffs # lj/cut/omp

1 0.0914 3.95
2 0.1947 3.75

Bond Coeffs # harmonic/omp

1 449.5 1.53
2 449.5 1.53
3 449.5 1.53

Angle Coeffs # harmonic/omp

1 62.0967 114
2 62.0967 114
3 62.0967 114

Dihedral Coeffs # opls/omp

1 1.411 -0.271 3.145 0
2 1.411 -0.271 3.145 0
3 1.411 -0.271 3.145 0

Atoms # molecular

1 2 1 7.234673186352678 0.4545671324925827 43.68549202159394 0 0 0
2 2 1 8.27552567418249 1.1893469135042594 44.58586969658715 0 0 0
3 2 1 9.110334946589916 0.45392875619851564 45.508336143273425 0 0 0
4 2 1 10.16895382728034 1.2129131217575986 46.350410765998895 0 0 0
5 2 1 10.619738546689717 0.3041321218689547 47.561330150648644 0 0 0
6 2 1 11.844716026387557 0.893987003741534 48.17872124002602 0 0 0
3195 3 1 18.16421966661181 14.372055954670753 45.55024186496839 0 0 0
2651 27 1 17.04869912660262 7.852941377654628 39.43856647294294 0 0 0
4135 37 1 11.903594986229077 22.80303868013046 39.15838519481264 0 0 0
2580 25 1 17.43902303640908 4.895365880433295 44.3980644708755 0 0 0
7744 59 1 2.5775346975621507 17.939871449761345 48.17773928125935 1 0 0
1917 23 1 13.949495627033677 25.588879634678324 46.06051814698295 0 0 0
1640 16 1 11.057700063840011 20.495953074471476 43.33792613640406 0 0 1
1641 16 1 12.199242582408045 21.117227293235555 44.302011188772084 0 0 1
7575 19 1 3.261075402970512 14.45432528378121 48.761005492465635 1 0 0
4083 37 1 16.286086440886738 23.5793586178203 43.74155519990231 0 0 0
4084 37 1 16.946732031217202 23.003796405669817 44.98852332322788 0 0 0
7573 19 1 1.2112199897251592 14.337812463206587 47.31497046479827 1 0 0
8045 61 1 1.4782655526997694 23.768621418512637 47.17906549714386 1 0 0
221 2 1 3.7253707672684495 0.3928630065076433 40.05884454702108 0 0 0
222 2 1 4.635013074009658 1.134799970842972 41.085533966397435 0 0 0
223 2 1 5.794775822798707 0.339735231722722 41.71930322823294 0 0 0
224 2 1 6.649300953200497 1.2455278731730672 42.59136142372588 0 0 0
262 3 1 14.764130887823981 2.435725524563625 46.49691504979067 0 0 0
263 3 1 15.69000812795599 3.2742016027959755 47.39821587283288 0 0 0
5869 49 1 2.3831784906688536 21.18865571762172 53.42897133787994 1 0 0
7685 61 1 5.7566390890162 16.88964309840266 46.73961535065461 0 0 0
825 27 1 14.783784107737592 11.220998627915126 46.90832805089405 0 0 0
2354 39 1 16.946105974483256 3.333224092721574 39.11138458164749 0 0 0
595 30 1 7.88219981927263 6.799533263226199 39.71819336522271 0 0 0
565 30 1 14.227759289221074 7.945120960999493 46.08610428395377 0 0 0
1676 21 1 14.588821215952345 20.228827846292912 47.03883426727252 0 0 0
2581 25 1 18.009017316803398 5.368725238352427 45.77664190973902 0 0 0
604 51 1 14.048414389936667 9.479584735556289 51.09753980381008 0 0 0
7821 11 1 2.042020510666161 20.99890544727743 43.462078279100325 1 0 1
264 3 1 16.28088793718087 2.333056472484778 48.48975251294086 0 0 0
8282 64 1 5.926113663375578 25.440691156870916 46.472480734578845 0 0 0
266 3 1 18.06097976891738 2.1753915435449773 50.39144754292155 0 0 0
296 3 1 11.957232770243346 3.3127192982029334 44.0938821947347 0 0 0
297 3 1 13.192253794570277 2.518629393955081 44.52413682685882 0 0 0
298 3 1 14.201700532236744 3.204139364614328 45.32290700083433 0 0 0
299 5 1 7.734230281213884 5.885194187150866 44.57832424882368 0 0 0
300 5 1 8.55186352494946 5.235083704449464 45.66988561049095 0 0 0
301 5 1 9.589095419978102 6.171763085966129 46.3874418711183 0 0 0
302 5 1 10.427509899538512 5.648544236900505 47.472923287342034 0 0 0
303 5 1 11.250252380701452 4.472868479712535 47.088042602203764 0 0 0
304 5 1 12.254904612493492 4.200547305088478 48.23592983467565 0 0 0
305 5 1 12.18670932192076 5.3416751957466175 49.19894381102643 0 0 0
306 5 1 13.416194078148715 5.412889552139936 49.98669355323427 0 0 0
307 5 1 13.774672796439264 4.017346448907776 50.37054876422644 0 0 0
308 5 1 14.886182704253088 4.045328010490978 51.41161941183262 0 0 0
309 5 1 15.099438090037104 5.463116396215127 51.86313312476137 0 0 0
518 5 1 4.010489336825052 4.7402901223737794 39.865544281956616 0 0 0
5564 41 1 0.6327440374711661 16.763443992397505 51.815324396616354 1 0 0
4634 41 1 0.6348286908148525 3.7579179721505716 51.252952813003645 1 0 0
4085 37 1 18.18591440508163 23.8215418363101 45.38789520186885 0 0 0
8047 61 1 3.4285803050125865 23.508747798936874 49.143806211940536 1 0 0
1524 18 1 2.886491456145768 19.272393910958353 39.248026699541015 0 0 0
1040 27 1 6.753904812935913 12.557444823699642 38.878297641827885 0 0 0
8279 64 1 2.929145534585603 24.844102152376177 44.20348081900812 0 0 0
7819 11 1 0.28049339116917904 21.08682052542355 41.660221017464835 1 0 1
2131 21 1 12.16554385677211 0.5487082012347178 39.31228844866126 0 0 0
7574 19 1 2.250368315908492 13.535041335630625 48.00155690047564 1 0 0
522 5 1 7.227888484054045 4.81651519785474 43.669490284885526 0 0 0
816 51 1 3.7089834500180254 9.21985054180046 40.353180001930276 0 0 0
2961 32 1 17.07270402446885 12.248360899412505 39.330991604166954 0 0 0
562 30 1 11.262529500697308 7.088760106654861 43.611136451140226 0 0 0
563 30 1 12.278480942796119 7.886353725437858 44.417925067859954 0 0 0
5867 49 1 0.7849268890919057 21.151636452656838 51.40557301312269 1 0 0
3643 35 1 17.125863070208545 18.533360320875868 44.859636422584 0 0 0
7742 59 1 0.5830528444640546 17.96232531142338 46.44052697667935 1 0 0
1921 23 1 17.669857127369255 25.37953116917821 49.24501852157688 0 0 0
6539 53 1 4.826891743137418 1.3277073282911112 50.70817151211865 0 0 0
4177 17 1 17.89225454129376 25.06601090375055 40.90118272712049 0 0 0
3638 35 1 12.828908806220229 19.273533122401908 40.09553198313092 0 0 0
2355 39 1 17.661111922300307 2.6145685087133748 40.26556346411908 0 0 0
6834 55 1 2.2678217725043193 5.114982384257924 48.29288519616542 1 0 0
6536 53 1 2.193895587339764 0.5003564100776586 47.89150258490683 1 0 0
3640 35 1 14.393775509730725 19.308224538571796 42.16061549097611 0 0 0
3856 10 1 17.03460791858336 21.629228451144968 39.705923579639986 0 0 0
7572 19 1 0.5140108453307509 13.535685608085931 46.19780179368952 1 0 0
7679 61 1 0.5786548919227648 16.68629497436537 41.11243371577564 1 0 0
597 51 1 8.33620893200637 10.238882022781873 44.48138499525699 0 0 0
598 51 1 8.913884534733937 9.35538378949289 45.5440435141471 0 0 0
599 51 1 9.81406365855703 10.264289549366808 46.42914058694543 0 0 0
600 51 1 10.55916352719206 9.40901393905625 47.46086976511968 0 0 0
601 51 1 11.481832333715964 10.320579411487877 48.344782903271664 0 0 0
602 51 1 12.205328017278163 9.590684614627554 49.419221262815924 0 0 0
603 51 1 13.139436800634366 10.354634328367544 50.18524955161364 0 0 0
7749 59 1 6.943094555459428 18.478845218578172 52.94396681373017 0 0 0
1895 56 1 6.508958710147768 23.541597626198392 42.78681613943164 0 0 1
1041 27 1 7.765502187404378 11.781310989600644 39.63057405540214 0 0 0
829 27 1 18.307777428562158 11.442902051010194 50.41193809805427 0 0 0
7532 58 1 1.2170169965662683 11.53604011028515 42.203808301045605 1 0 0
1914 23 1 11.486688298342111 25.071966732257184 43.24944664917702 0 0 0
1042 27 1 8.633627865330741 12.471086828534602 40.66084449907197 0 0 0
1051 14 1 16.783751952960767 14.234569826944057 53.864948942452834 0 0 0
8281 64 1 4.71308124284131 24.82714539209028 45.827085679982616 0 0 0
517 5 1 3.0569091126373715 5.740599345206312 39.12203365137145 0 0 0
7825 59 1 5.690843564873217 20.959193950226776 46.98517730089323 1 0 0
8050 61 1 5.604440836808648 22.184710432144037 51.92522471945291 1 0 0
817 51 1 4.6022935409245855 10.284531347384537 40.99921244632207 0 0 0
818 51 1 5.6598536949684775 9.464293161038654 41.725069336833144 0 0 0
819 51 1 6.4699514394555955 10.197049254075743 42.76123380797389 0 0 0
820 51 1 7.374989553186193 9.325892900712057 43.69011048253862 0 0 0
821 27 1 11.53616631983498 11.38066042658048 43.14099165447038 0 0 0
822 27 1 12.51039950842051 12.006694110894943 44.0063368856748 0 0 0
823 27 1 12.8698703921133 11.149995093210205 45.22979138534318 0 0 0
7286 54 1 1.2666660083865469 10.063316819611932 47.039044595765176 0 0 0
7543 58 1 10.679241082143555 12.461696318081374 52.22347884934503 0 0 0
2135 21 1 15.645060861395422 0.6503099450551165 43.38950209524541 0 0 0
1919 23 1 15.596276810006373 25.58070691230874 47.96617878696101 0 0 0
7069 49 1 12.524945851063364 7.655568708843938 53.88484095404549 0 0 0
1488 14 1 8.112516716604054 15.960895377136058 39.39136416005852 0 0 0
7066 49 1 9.684735919064721 7.1528633163071405 51.44560951925614 0 0 0
7065 49 1 8.68990513685403 8.09518312721311 50.69281767665167 0 0 0
2612 25 1 12.671272210491782 5.751689847406722 40.19043822344555 0 0 0
815 51 1 3.108665149464286 10.159380860326504 39.28485031854518 0 0 0
7681 61 1 2.47166834510246 16.68387911285033 42.94962866940857 1 0 0
1898 18 1 8.668904815479813 22.79299027406781 45.67644378021696 0 0 0
7683 61 1 4.328386633496475 16.710644079080467 44.80440855019187 0 0 0
1636 16 1 8.064374185482368 20.47328441862264 39.32107863857507 0 0 1
7687 61 1 7.477165961045245 16.881958164763763 48.765265983479004 0 0 0
1045 14 1 11.711323511731383 14.667556377952126 48.09253179003851 0 0 0
1046 14 1 12.51361864415642 13.85169776019835 49.17292952800647 0 0 0
1047 14 1 13.485015499331716 14.482847127154054 50.13766511847937 0 0 0
1048 14 1 14.130066528571318 13.618328090285845 51.138963392138685 0 0 0
560 30 1 9.481837369669337 6.8284349034398195 41.882871245415 0 0 0
8276 64 1 0.15868393453869895 25.63617417537114 41.59129048742703 0 0 0
5565 41 1 1.9540880001039214 16.073356094938354 52.21880852696534 1 0 0
6787 57 1 0.6836600950390123 3.4514208387279313 41.48890345848437 0 0 0
1643 16 1 13.785438288236357 20.987375894215592 46.034787183997786 0 0 1
1044 27 1 10.663831388791971 12.391661799030969 42.35292989248783 0 0 0
6836 55 1 4.126248964431394 4.973724621667356 49.94096958390438 0 0 0
7743 59 1 1.4979158232747152 18.753938104516916 47.38817230069099 1 0 0
7691 61 1 11.152482298546127 16.556816845150763 52.034500742162024 0 0 0
7745 59 1 3.3851012273656047 18.792527220633044 49.101159471900665 0 0 0
564 30 1 13.378889865315154 7.103450105184204 45.148252904825256 0 0 0
8280 64 1 3.7490342422635843 25.753216944473834 45.15923021050774 0 0 0
2957 29 1 12.469061104435442 9.848679844923273 39.78144361926274 0 0 0
2613 25 1 13.76759084386593 4.94571052497638 40.91841143809893 0 0 0
1264 14 1 7.4253800285525 13.843410259474116 43.627398476744304 0 0 0
1265 14 1 8.238766749948525 14.537320227830488 44.631161729159075 0 0 0
1266 14 1 9.489845197806282 13.842370546600138 45.192886640135164 0 0 0
1267 14 1 9.996996289434756 14.728919093217142 46.34936894453694 0 0 0
1268 14 1 10.712217179185254 13.860827645642901 47.36892255242283 0 0 0
1269 14 1 12.63178553451467 16.802754050286072 43.857801267512265 0 0 0
1270 14 1 13.232754723033182 15.88463822503701 44.90039630988898 0 0 0
1271 14 1 14.15660982765202 16.693680066213943 45.81801727998395 0 0 0
1272 14 1 15.019221967571802 15.697773201399029 46.511944466152286 0 0 0
1273 14 1 15.954917745765297 16.339767546205223 47.44169391114044 0 0 0
1274 14 1 16.55086207638068 15.554105938346254 48.63373829822336 0 0 0
1275 14 1 17.6467684021862 16.30230108191163 49.323494300617114 0 0 0
6313 2 1 2.8940753182848264 25.24952128302268 52.744351787499674 1 0 0
3407 55 1 16.897868369366567 16.80353621254876 40.13887246341215 0 0 0
3408 55 1 17.839398828082253 15.849993690467075 40.92507409571761 0 0 0
7579 19 1 6.455044759696061 14.389502325790849 52.464055407612946 0 0 0
7747 59 1 5.1253691388578595 18.685096738408376 51.028832807514796 0 0 0
1897 56 1 8.14271439417242 23.591280384278672 44.56284074989584 0 0 1
570 30 1 18.45270610949557 6.704637276769548 50.4558856754193 0 0 0
6833 55 1 1.1972138662603788 5.853455820927424 47.367593518038944 1 0 0
1916 23 1 12.879873603201464 24.92331307306376 45.27468445758267 0 0 0
3194 3 1 17.293282926077083 13.531123532833687 44.593562147234564 0 0 0
1492 14 1 11.629488817616242 15.974880033736055 43.11671829471882 0 0 0
1493 18 1 7.215643934664513 18.365933523101944 43.63864245314372 0 0 0
1494 18 1 8.088783957158029 19.05792192577207 44.6283277946081 0 0 0
1495 18 1 9.240939339456746 18.204737638459566 45.105828334901176 0 0 0
1496 18 1 9.437678892123424 18.327102584682244 46.54499914101736 0 0 0
1497 18 1 10.85004863567383 18.011255946869692 46.87759422202178 0 0 0
1498 18 1 11.29974530002033 18.86031008853206 48.11906168135643 0 0 0
1499 18 1 12.533292109771962 18.09244846552804 48.5230232212949 0 0 0
1500 18 1 13.256622008004399 18.452172167305445 49.73944539295883 0 0 0
1501 18 1 14.473754636192126 17.850717338451908 50.57044085548618 0 0 0
1502 18 1 14.963567134005768 18.836109138810343 51.60141445904452 0 0 0
5567 41 1 3.693233830619507 16.012339342869275 54.1358454044986 1 0 0
7540 58 1 8.09387743363706 11.657389740566623 49.588161315933824 0 0 0
7748 59 1 6.164145102602978 17.800149555463673 51.795999454707825 0 0 0
7539 58 1 7.40269301332743 12.417484531949233 48.428282557965844 0 0 0
594 30 1 6.783053990631202 7.775301670649725 39.035363099305684 0 0 0
6840 55 1 7.554211375559298 4.983629488909497 53.61822590289854 0 0 0
1263 14 1 6.397639285861238 14.711475271481323 42.917572218289564 0 0 0
1915 23 1 12.313148922172237 25.902824356921105 44.24340566746359 0 0 0
567 30 1 15.599552655649717 7.692209749433662 48.145780226752564 0 0 0
606 51 1 16.27015664154596 9.288520497340086 52.60035378328049 0 0 0
7750 59 1 7.789382199017874 17.635434739717148 53.73645150802704 0 0 0
827 27 1 16.716571741024797 11.269043808972395 48.37557859488377 0 0 0
1528 18 1 6.413264806326658 19.37942873951763 42.871320211171565 0 0 0
8052 61 1 7.20925180414623 22.34123457897313 54.04513591811907 1 0 0
2579 25 1 16.177383970055075 5.67912203766091 43.92375498633726 0 0 0
2956 29 1 11.302339113007813 9.077324098280355 39.24854970875847 0 0 0
568 30 1 16.648819513049354 6.77486889212811 48.85241734988939 0 0 0
2133 21 1 14.046711097398909 0.44486079067449763 41.26848980029894 0 0 0
1259 13 1 3.0511506919477474 14.95027788196768 39.048377365276785 0 0 1
2136 21 1 16.9176065404312 1.176783557367798 43.90849048030211 0 0 0
7290 54 1 4.544719312328609 10.108071172433103 51.02094125806019 0 0 0
1642 16 1 13.03375277314582 20.148406858291956 45.136687606868584 0 0 1
3639 35 1 14.051161641467816 18.68570143546683 40.77385047439458 0 0 0
259 20 1 7.8662728284787455 2.521859205521513 39.43112147837453 0 0 1
6798 57 1 9.475278388212171 2.2685620481078805 51.52879115229184 0 0 0
826 27 1 15.539936512827797 12.066123077186274 47.94336078900553 0 0 0
1260 13 1 3.7703117642456867 14.053049755217165 39.98792359336892 0 0 1
1910 23 1 8.142103605562884 24.702027636575338 39.362893228088964 0 0 0
5275 44 1 3.5221270575814723 11.895908787902005 54.28467665139618 0 0 0
7533 58 1 2.3195674954702654 12.1081193880587 43.096870816146414 1 0 0
1490 14 1 9.573162196562444 15.95183633977571 41.43303104892789 0 0 0
1681 18 1 14.7592327241433 23.11799790291324 51.816653978128954 0 0 0
1682 18 1 15.843070428311856 22.15158967390465 52.41547121394339 0 0 0
6311 2 1 0.9725810385712027 25.536957700299535 51.19760235419213 1 0 0
569 30 1 17.326491083132513 7.5997306113006875 49.878238139642455 0 0 0
11 2 1 15.933967737593743 26.14745117323344 52.69747521898247 0 -1 0
7576 19 1 3.654999009577142 13.6731016884026 49.94171225831666 1 0 0
3192 3 1 15.637361200430512 13.72841328426276 42.8933648338221 0 0 0
261 20 1 9.528756804519336 2.278014243433084 41.43341090945432 0 0 1
7291 54 1 5.683818165411732 9.38714757891414 51.63026620889875 0 0 0
5273 44 1 1.9613148360328387 11.847047725053582 52.34804355828639 1 0 0
4176 17 1 17.194266431777795 25.901808544902195 39.857631043153184 0 0 0
6538 53 1 3.9371985176516593 0.5457331120664001 49.76333085870083 0 0 0
7055 49 1 0.38397040525760734 7.775588085466723 40.87609998935565 1 0 0
7578 19 1 5.6385456782031405 13.511317390215888 51.54525899224858 0 0 0
7830 59 1 10.174215006579471 20.320708164024488 51.17783205849192 0 0 0
1637 16 1 8.803016221468164 21.166787847369577 40.40152576728775 0 0 1
4980 53 1 3.257126101889077 6.908890503398344 54.103785107351044 0 0 0
1899 18 1 9.92177598988541 23.394794010303276 46.21435093329378 0 0 0
1900 18 1 10.342617905645723 22.633632773973833 47.44797921374215 0 0 0
1901 18 1 11.521325659759341 23.282093669870996 48.01541658735806 0 0 0
1902 18 1 12.335419850036166 22.35261096833988 48.878480595053006 0 0 0
1903 18 1 13.329799113852342 23.136813033363158 49.73022488759867 0 0 0
1904 18 1 14.020965508345634 22.33198647565757 50.80610136602471 0 0 0
2134 21 1 15.104420490840354 1.1890403488160854 42.02986127335172 0 0 0
6797 57 1 8.974288728033336 3.0348525347473063 50.29247724148514 0 0 0
5870 49 1 3.5533429601107294 20.425356370706794 54.12827190321478 1 0 0
1527 18 1 5.453312660123726 18.559082496026857 42.024271832705196 0 0 0
1920 23 1 16.517489141022644 24.597499664516715 48.644510217613885 0 0 0
2958 29 1 13.349888840263663 8.995429699534876 40.69091453261051 0 0 0
1911 23 1 8.842230343917096 25.57627206622167 40.4183526696481 0 0 0
1912 23 1 9.977492894537546 24.932945756449524 41.21111786480221 0 0 0
265 3 1 17.536155990716452 2.899855159630543 49.226997152665064 0 0 0
220 2 1 2.9244825419612814 1.366833631656433 39.151674407304256 0 0 0
7544 58 1 11.26161470901917 11.77167540703805 53.42051472515925 0 0 0
3858 10 1 18.51652960409652 21.75156430274754 41.85052864445182 0 0 0
8287 64 1 9.618107906052265 24.622329280524696 51.60113524383876 0 0 0
1261 13 1 4.704531391841417 14.773321015097025 40.90522033167433 0 0 1
7063 49 1 7.018235021034273 8.020992978539796 48.7199649745921 0 0 0
7693 61 1 12.840151201977195 16.468881384784236 53.71827759826995 0 0 0
260 20 1 8.752791844317299 3.1125042109406333 40.450699991757894 0 0 1
2738 29 1 16.934659747815118 9.033242289882283 44.19045195313613 0 0 0
10 2 1 15.38743088260539 0.5666419606181263 51.672168056510756 0 0 0
5566 41 1 2.5461900783664175 16.757061308942937 53.42434039407085 1 0 0
1680 21 1 18.44523730231636 20.14227372614346 50.255737722311096 0 0 0
3191 3 1 14.66995420100024 14.355012286498152 41.877511325287024 0 0 0
3641 35 1 15.659272447143302 18.784042694206466 42.91867965127679 0 0 0
4079 37 1 12.940307893101432 23.605502242220574 39.94426855006668 0 0 0
7541 58 1 9.388329671358878 12.043168648942162 50.15721335284944 0 0 0
3190 3 1 13.982720348047488 13.683188300124034 40.753398337204935 0 0 0
1913 23 1 10.76652598419027 25.867235883364867 42.160582879503195 0 0 0
2611 25 1 11.996103887526033 4.82916881160331 39.17742286294975 0 0 0
3857 10 1 17.839424055484425 20.96621874280454 40.758091290215376 0 0 0
4637 41 1 3.2821661665439774 2.725092189069964 54.01108799669232 1 0 0
4979 53 1 2.3899273324269963 7.928708545211461 53.40628867714077 0 0 0
2577 25 1 14.499825707178799 5.658661059024011 42.06150067528907 0 0 0
3193 3 1 16.45431352953848 14.458557181002126 43.86750263165412 0 0 0
7692 61 1 11.654330891648247 15.708039525446349 53.09969284696358 0 0 0
7820 11 1 1.154424219834585 20.187025958749093 42.526145910135426 1 0 1
7823 59 1 3.8252049097009686 21.199134918186754 45.37029671244542 1 0 0
1677 21 1 15.659608713755276 21.108176939824688 47.78204776428181 0 0 0
8288 64 1 10.836280421675452 25.157362036232865 52.405398831754496 0 0 0
7746 59 1 4.446260764195858 18.11502651195398 49.886123556017374 0 0 0
6788 57 1 1.4210564494875086 2.6408092422235407 42.552505778705324 0 0 0
8046 61 1 2.6055492585984563 23.018610796382433 47.87051799062035 1 0 0
6838 55 1 5.929998235637162 4.9633102787752295 51.64350015036245 0 0 0
8051 61 1 6.505446053522091 23.02846844622968 52.84260094062978 1 0 0
1892 56 1 3.856649734039567 22.76059734158344 40.22433144868239 1 0 1
8286 64 1 9.279609556310199 25.239564590254467 50.2715898179672 0 0 0
7288 54 1 2.8299179201699465 10.035351545216672 49.09545404414472 0 0 0
2735 29 1 14.198648310568064 9.826390448894516 41.55319219252496 0 0 0
2736 29 1 14.997892287326293 8.90055004348013 42.417581183690466 0 0 0
7068 49 1 11.795404958588136 6.910063833273242 52.892966800258755 0 0 0
6799 57 1 10.494343352771654 3.0318244608273317 52.26484030482702 0 0 0
7058 49 1 2.887416067129673 7.0815556106529565 43.82343987564889 0 0 0
1678 21 1 16.493036434262894 20.30395958982748 48.84183075779587 0 0 0
3189 3 1 13.052611424372968 14.56190578947017 40.14827513438424 0 0 0
7688 61 1 8.330180438206671 15.877577361510324 49.40561223272903 0 0 0
7581 19 1 8.03984963964016 14.570286751137361 54.43245727003641 0 0 0
1526 18 1 4.70927305303211 19.358380830663005 40.95589006942755 0 0 0
5868 49 1 1.92186103786791 20.450022331580122 52.10936389794673 1 0 0
6801 57 1 12.323645799490516 2.7609180727437392 53.97974522626133 0 0 0
4636 41 1 2.563535595979633 3.6416528033491313 52.99298845520936 1 0 0
8277 64 1 1.236875818695363 24.821492148714515 42.32351149411384 0 0 0
7822 11 1 3.094936348420507 20.4088487337703 44.28737106785268 1 0 1
1489 14 1 8.925791066543704 16.798466800824155 40.40726379092303 0 0 0
520 5 1 5.406424834989157 4.560293337133305 41.94728142086934 0 0 0
6542 53 1 7.4270572611632995 0.146172979502304 53.30847277688518 0 0 0
1491 14 1 10.4910259444982 16.662776326756035 42.44713318026931 0 0 0
6537 53 1 2.963119380427886 1.358580981855708 48.91848606923375 0 0 0
2132 21 1 13.429560762632724 1.0817070397637978 39.96965583906259 0 0 0
7829 59 1 8.992852914829196 21.059654942705976 50.713409947432304 0 0 0
7292 54 1 6.464987863863176 10.09411884487661 52.79594561914435 0 0 0
1896 56 1 6.950035981385971 22.841303878860746 44.07776154233025 0 0 1
7826 59 1 6.7546983850704345 20.16257572761176 47.80425426274883 1 0 0
7684 61 1 4.713210371324632 16.05381982432846 46.0831710559439 0 0 0
1262 14 1 5.509320404168681 13.898485275765609 41.97920762008033 0 0 0
7680 61 1 1.2235354316387617 16.059120370169385 42.36316606949913 1 0 0
5272 44 1 0.6979260560691377 12.404835249639456 51.67241363343611 1 0 0
1894 56 1 5.541639736390127 22.655543592458873 42.23216403155044 0 0 1
605 51 1 15.250841426495843 10.150165048564554 51.80237650288265 0 0 0
566 30 1 14.920938737903295 6.9458588368443985 47.01081802064711 0 0 0
1487 15 1 6.983426303479259 16.819671422379784 38.90614192165097 0 0 1
7056 49 1 1.2244748770401708 7.019287636038561 41.87276195874564 0 0 0
1918 23 1 14.51904378224501 24.815329961718945 47.19390246796052 0 0 0
1043 27 1 9.76834933581223 11.750391957168352 41.38672508314006 0 0 0
6839 55 1 6.451453873712477 5.779087438288193 52.88892707656486 0 0 0
294 3 1 10.69567415435476 3.062873910397125 42.03491797082076 0 0 0
2578 25 1 15.65180497827961 4.986795829838204 42.708419712798644 0 0 0
3855 10 1 16.279775815226365 20.70926248307972 38.88679826164049 0 0 0
5274 44 1 2.3622203066795224 12.594796655757547 53.62809841401602 1 0 0
521 5 1 6.234252628194529 5.475100428642681 42.840065246575776 0 0 0
7293 54 1 7.57597420916966 9.232957694430977 53.50168567235271 0 0 0
7686 61 1 6.4455911337538865 16.20825530262818 47.87671194070328 0 0 0
4081 37 1 14.638532787711007 23.624395464556063 41.7866592318478 0 0 0
1525 18 1 3.9288425384936208 18.435057291480824 40.01584044237896 0 0 0
1893 56 1 4.691551262612621 23.451417972007274 41.285669208769384 1 0 1
8285 64 1 8.019829169635358 24.798191437069633 49.52978061967687 0 0 0
1049 14 1 15.272394444356564 14.31090229952486 51.8344564038718 0 0 0
7067 49 1 10.763925596686803 7.862349900915637 52.280600581387844 0 0 0
3644 35 1 18.227620758650314 19.277379918550952 45.588255644225335 0 0 0
596 30 1 8.707761098010726 7.534817653435831 40.747138741761304 0 0 0
7289 54 1 3.9895105251769385 9.331459461628372 49.765367991104874 0 0 0
7580 19 1 7.461683769442696 13.648319090796338 53.39982866277154 0 0 0
3642 35 1 16.499863964025018 19.576865160001145 43.96326316446722 0 0 0
8044 60 1 0.7150614182020738 22.81680435346096 46.251379866205646 1 0 1
7542 58 1 9.558815737796063 11.612641043497138 51.57594087380164 0 0 0
1679 21 1 17.70496578784513 21.009651792652438 49.26331843546352 0 0 0
8278 64 1 2.060326446205675 25.668220344624388 43.280490122403435 0 0 0
7828 59 1 8.455444465511087 20.34458777866099 49.48795435163706 0 0 0
8 2 1 13.367839491526627 0.9734303551521805 50.10699391518244 0 0 0
311 5 1 16.423332275267708 4.295038695895907 53.64433181643946 0 0 0
8284 64 1 7.604581059807271 25.538946514661927 48.3642000943847 0 0 0
7831 59 1 10.707983111028145 20.94027860113094 52.507598711015234 0 0 0
7690 61 1 9.981479951903925 15.978581601881055 51.38155892190325 0 0 0
2739 29 1 17.70892644139828 9.86432825728696 45.101399446573396 0 0 0
6535 53 1 1.2480552697877223 1.471264538406029 47.37477620360489 1 0 0
7062 49 1 6.471445526502513 7.150091760141045 47.574249366819345 0 0 0
561 30 1 10.522970175081166 7.775724666246189 42.45248736962682 0 0 0
1276 14 1 18.37893250030218 15.612283102645971 50.47728221753471 0 0 0
7689 61 1 9.57993460876625 16.488612944847514 50.019933181308154 0 0 0
6534 53 1 0.5530090885420698 0.7575383246670818 46.33910803208836 1 0 0
2653 27 1 18.32153165626269 7.984083292943999 41.41454965542848 0 0 0
828 27 1 17.573812255047912 12.137436478470935 49.16939010528774 0 0 0
7827 59 1 7.22722420103195 21.029780002567634 48.94150796455482 0 0 0
7682 61 1 3.1318480975333722 15.976384845620789 44.16072646990354 0 0 0
6832 55 1 0.5187070115154699 4.965766313631403 46.35239549513875 1 0 0
8049 61 1 5.131042582266244 23.059956308557563 50.80760554152531 1 0 0
4082 37 1 15.12753430862845 22.865603124428887 43.00411485618049 0 0 0
7537 58 1 5.515192092205352 12.369431300926646 46.868253925288236 0 0 0
2652 27 1 17.493085278648252 7.070025110259655 40.67454218792687 0 0 0
7061 49 1 5.36122017381985 7.959163558640055 46.71362500563165 0 0 0
4635 41 1 1.7112308371919005 2.9477951935543913 51.918971253750826 1 0 0
607 51 1 16.94338385872212 10.14981788926643 53.71734484019558 0 0 0
7059 49 1 3.7266993108416626 7.901813909372849 44.888368428009215 0 0 0
7060 49 1 4.813953454665809 7.11845287465887 45.57950284811379 0 0 0
4080 37 1 13.629459091092189 22.752059680780544 40.96489380241692 0 0 0
1503 18 1 16.221216292440378 18.1378199295544 52.28658602513213 0 0 0
2137 21 1 17.23342890288407 0.6887670151566072 45.291595912850624 0 0 0
1639 16 1 10.255009067446137 21.25076368469428 42.384129420201056 0 0 1
6541 53 1 6.196344787097246 0.8542813536892516 52.78911973896611 0 0 0
1050 14 1 15.895938686494667 13.42965300109071 52.834315307102656 0 0 0
519 5 1 4.615405257238209 5.463377020268713 41.02457828404589 0 0 0
7285 54 1 0.6235160129836678 9.173919242422494 45.916287719279644 0 0 0
3637 35 1 11.85968402106441 18.26601602243623 39.407703765885316 0 0 0
7535 58 1 3.7192513598763512 12.146919627355679 44.9807343959466 0 0 0
6835 55 1 3.3861184958330903 5.851711628530116 48.94591234732166 1 0 0
7832 59 1 11.497910046780548 19.934388010565193 53.29968362003307 0 0 0
7064 49 1 8.051298500978826 7.320484453376879 49.56761655470426 0 0 0
824 27 1 13.696559056404269 12.06073659623228 46.227929212442696 0 0 0
7531 58 1 0.6024080439868561 12.552798983094586 41.26814911362867 1 0 0
6789 57 1 2.2902363474954046 3.5725607487574456 43.33629101292201 0 0 0
6790 57 1 3.0940975923926257 2.6746734920048088 44.275775883029794 0 0 0
6791 57 1 3.743816812267879 3.634285201264158 45.25621297680072 0 0 0
6792 57 1 4.733045769247559 2.7643064653152445 46.119938003448624 0 0 0
6793 57 1 5.690567663331063 3.530851259059848 46.95238913805981 0 0 0
6794 57 1 6.405109589299576 2.650719862913373 47.83448762832465 0 0 0
6795 57 1 7.617046121093507 3.253274705236953 48.31904508494473 0 0 0
6796 57 1 8.03131320992592 2.2418107340393005 49.38433968523648 0 0 0
3188 3 1 12.01317814966382 13.856185315824382 39.23724693162769 0 0 0
7824 59 1 4.883408429134308 20.209277953837102 45.93379376012834 1 0 0
4978 53 1 1.9222461925329275 7.278449545630069 52.14239672788836 0 0 0
295 3 1 11.223886706227663 2.4132207473896936 43.22227355522613 0 0 0
7534 58 1 3.2143310874145596 11.238371147265305 43.89556547272046 0 0 0
6837 55 1 4.973489074770102 5.854941052130968 50.94319123770135 0 0 0
310 5 1 16.3081018748443 5.429806458150178 52.73209939149447 0 0 0
1638 16 1 9.14651798788591 20.39042371040625 41.64347888330467 0 0 1
7538 58 1 6.303199488501816 11.528764746800311 47.87820924679352 0 0 0
8283 64 1 6.307844116031 24.92819256225446 47.834222526231066 0 0 0
9 2 1 14.187337265704631 26.666225570538053 50.942317059483926 0 -1 0
8289 64 1 11.711407150579268 24.262581285248423 53.241404094042856 0 0 0
2740 29 1 18.494285887736545 9.097551603603918 46.07974874512001 0 0 0
7287 54 1 2.093233687492418 9.315232754204002 48.02056212641672 0 0 0
2737 29 1 15.869857953757034 9.750212695178883 43.38933552361395 0 0 0
6540 53 1 5.79961078149252 0.33722270529363585 51.40321400719376 0 0 0
7545 58 1 12.743178113878354 12.032578322052816 53.6801145856719 0 0 0
6314 2 1 3.3485115472937412 24.469886111802175 53.93153785150411 1 0 0
1504 18 1 16.529096402476913 18.703041007319108 53.62011327471921 0 0 0
7536 58 1 4.771288340972903 11.440418148309096 45.86080634192463 0 0 0
8048 61 1 4.231583557297016 22.375604527160093 49.81638831838409 1 0 0
7577 19 1 4.705815575913266 14.340124673482098 50.783123665270416 0 0 0
7 2 1 12.060999307257495 0.34867686433905765 49.60873110881231 0 0 0
7057 49 1 1.9411872337955371 7.887210012857218 42.853234311766776 0 0 0
6312 2 1 1.7403609345275535 24.6116060194921 52.06225611316325 1 0 0
6800 57 1 11.549630213216487 2.0638251647677306 52.77763503038147 0 0 0
12 2 1 16.8150163273806 0.42369471549969084 53.59429091645811 0 0 0
1635 16 1 6.814296183758116 21.16201875731471 38.87081038222489 0 0 1
312 5 1 17.725251919781844 4.3380021939673 54.419771059032726 0 0 0
8290 64 1 12.583976711293042 25.187846833103986 54.107167368559466 0 0 0
1683 18 1 16.52736250587373 22.833648285341987 53.704475127835806 0 0 0