LAMMPS data file via write_data, version 29 Oct 2020, timestep = 32000000

10752 atoms
2 atom types
10752 bonds
3 bond types
10752 angles
3 angle types
10752 dihedrals
3 dihedral types

-1.4019591925125496e-01 3.1008115919238300e+01 xlo xhi
-1.2113307625790526e-01 2.6791853076229280e+01 ylo yhi
 3.6304974382201891e+01 2.4669438561706369e+02 zlo zhi

Masses

1 14
2 15

Pair Coeffs # lj/cut/omp

1 0.0914 3.95
2 0.1947 3.75

Bond Coeffs # harmonic/omp

1 449.5 1.53
2 449.5 1.53
3 449.5 1.53

Angle Coeffs # harmonic/omp

1 62.0967 114
2 62.0967 114
3 62.0967 114

Dihedral Coeffs # opls/omp

1 1.411 -0.271 3.145 0
2 1.411 -0.271 3.145 0
3 1.411 -0.271 3.145 0

Atoms # molecular

1            1            1      7.48158      24.9824       37.684
2            1            1      6.87275      26.1826      38.4321
3            1            1      7.69972      26.5969      39.5869
4            1            1      6.88786     0.700338      40.4615
5            1            1      7.67708      1.17038      41.5897
6            1            1      6.77077      2.13786      42.2646
7            1            1      5.54376      1.60707      43.0334
8            1            1      5.93939     0.588122      44.1389
9            1            1      4.83932     0.651962      45.2459
10            1            1      4.67039      2.02088      45.7455
11            1            1      3.87936      2.02942      46.9463
12            1            1      3.76316     0.663478       47.557
13            1            1      2.70748     0.779853      48.6237
14            1            1      2.61984      26.3889      49.4437
15            1            1      1.54599      26.2711      50.4941
16            1            1      1.71576      24.9913      51.3367
17            1            1     0.732437      25.1817      52.5124
18            1            1     0.649861      23.9125      53.3526
19            1            1      30.7384      23.8561      54.3951
20            1            1      30.5581      25.1544      55.1938
21            1            1      29.6555      24.9942      56.4464
22            1            1      29.4746       26.372      56.9287
23            1            1      28.2863      26.6159      57.8241
24            1            1      28.1838        25.39       58.639
25            1            1      26.9231      25.4744      59.4271
26            1            1      27.2633      26.5244      60.5567
27            1            1      26.5369      26.3388      61.8957
28            1            1      27.2045     0.464211      62.7633
29            1            1      26.7382      0.70445      64.1974
30            1            1      25.5278      1.66606      64.1736
31            1            1      24.9991      2.29541      65.4234
32            1            1      24.0594      1.48874       66.269
33            1            1      23.1668      2.11089      67.3062
34            1            1      23.9514       3.1186      68.1177
35            1            1      23.2083      3.58824      69.3316
36            1            1      24.1511      4.60035      70.1024
37            1            1      23.4046      5.21699      71.2946
38            1            1      24.4085       5.9338      72.1699
39            1            1      23.5617      6.72015      73.1419
40            1            1      23.2338      5.78936      74.2751
41            1            1      22.3496      6.42253      75.3316
42            1            1      21.9308      5.44736      76.3818
43            1            1      20.7129      5.94417      77.0461
44            1            1      20.2023      5.02988      78.1538
45            1            1       21.361      4.94702      79.1221
46            1            1      21.1364      4.00712      80.3371
47            1            1      22.0847      4.09159      81.4859
48            1            1      22.1642      2.85978      82.3731
49            1            1      23.3648      2.93161      83.4707
50            1            1      23.2046      3.68497      84.7574
51            1            1       24.491      3.70024      85.5531
52            1            1      24.7438      4.80669      86.6265
53            1            1      23.3864      5.11622       87.265
54            1            1      23.5792      6.20152      88.3916
55            1            1      25.0739      6.39474      88.7292
56            1            1      25.3166       7.2717      90.0303
57            1            1      24.0373      7.57616      90.8305
58            1            1      24.5068        8.627      91.7677
59            1            1      23.3985      8.74839      92.7443
60            1            1       22.984      7.46235      93.3145
61            1            1      21.9335       7.6771      94.4051
62            1            1      21.7673      6.36252      95.2053
63            1            1      23.1156      6.11824      95.8263
64            1            1      23.7179      7.21095      96.6005
65            1            1      24.8888      6.78918      97.5385
66            1            1      24.4383      5.53946      98.2167
67            1            1      25.4458      5.31301      99.3391
68             1             1       25.2058       4.14856       100.247
69             1             1        26.106       3.93261       101.446
70             1             1       25.8182         2.913       102.501
71             1             1       26.9253       2.79475       103.553
72             1             1       26.6506       1.64505       104.526
73             1             1        27.623       1.60824       105.742
74             1             1       27.3558      0.429335       106.599
75             1             1        28.385      0.342629       107.657
76             1             1       28.3955       26.0439       108.553
77             1             1       29.5563       26.0451         109.6
78             1             1       29.7763       0.46884       110.376
79             1             1       28.6153       0.58634       111.283
80             1             1       28.2956       26.1499       111.892
81             1             1       27.0638        26.264       112.824
82             1             1       27.3088      0.365223       113.877
83             1             1       26.0602      0.708093       114.773
84             1             1       26.5867       1.83233       115.644
85             1             1       25.7502       1.95727       116.972
86             1             1       25.8192        3.2714        117.81
87             1             1       24.6499       3.25591       118.788
88             1             1       24.9194       4.36866       119.872
89             1             1        23.845       4.29755       120.982
90             1             1       24.1402       5.37097       121.937
91             1             1       22.9198       5.50049        122.84
92             1             1       23.2199       6.44712       123.996
93             1             1        24.745       6.51799       124.239
94             1             1        25.074       6.61157       125.756
95             1             1       24.8187        7.8989       126.379
96             1             1       25.5244       7.86751       127.712
97             1             1       25.2432        9.1681       128.436
98             1             1       26.1914        9.1047       129.587
99             1             1       26.9279       7.83971       129.506
100             1             1       27.5128       7.42476       130.796
101             1             1       28.0092       8.61981       131.668
102             1             1        29.312       8.36772       132.396
103             1             1       29.2223        7.1812       133.426
104             1             1       27.8945       7.23106       134.166
105             1             1       27.8229       6.13419       135.242
106             1             1       29.1261       5.91589       135.948
107             1             1       29.0714        4.7833       136.963
108             1             1       27.9948       5.15215       138.009
109             1             1       27.7612       4.01965        139.03
110             1             1       26.4901       3.98306       139.823
111             1             1       26.2087       4.90713       140.969
112             1             1       25.2277       4.29064       141.888
113             1             1       24.5778       5.25931       142.819
114             1             1       25.6117       6.14989       143.301
115             1             1       25.0452       6.54374       144.604
116             1             1       23.6463       7.06177       144.502
117             1             1       23.3031       7.27547       145.964
118             1             1       24.4997       7.51921       146.707
119             1             1       24.2427       8.18445       148.064
120             1             1       25.4482       8.50763       148.899
121             1             1       25.1123       9.67065       149.756
122             1             1       26.1553       9.90685       150.795
123             1             1       25.7131       10.9908       151.695
124             1             1       26.7011       11.1659       152.848
125             1             1       26.6772       10.0072         153.8
126             1             1        27.547       10.2425       154.994
127             1             1       27.7113       8.90605       155.824
128             1             1       28.8473       9.07537       156.741
129             1             1       28.9004       7.86495       157.667
130             1             1       29.9547       8.01619       158.764
131             1             1       29.9819       6.74609       159.523
132             1             1    -0.0691318       6.98102       160.548
133             1             1       0.17215       5.71599       161.356
134             1             1       1.55437       5.62031       161.885
135             1             1       1.54615       4.61158       163.036
136             1             1       2.64883       4.96516       164.013
137             1             1        2.5748       4.10196       165.313
138             1             1       3.57724       4.66681        166.31
139             1             1       3.85397       3.73253       167.493
140             1             1       2.57017       2.96569       167.929
141             1             1       2.88734       1.88518       168.909
142             1             1       3.51253       2.63848       170.106
143             1             1       3.71291       1.72542       171.172
144             1             1       2.50662      0.920096       171.617
145             1             1       3.03319       26.6113       172.368
146             1             1       3.82382   -0.00637507       173.646
147             1             1       4.19023       25.6582       174.484
148             1             1       5.07988       25.9481       175.647
149             1             1       5.91537      0.176725       175.239
150             1             1       6.64045       0.76475       176.441
151             1             1       7.04225       26.4189       177.246
152             1             1       7.91125       26.7267        178.41
153             1             1       8.07855       25.5045       179.323
154             1             1       9.01513       25.5596       180.549
155             1             1       8.93265       24.2655       181.334
156             1             1       9.91591       24.3585       182.489
157             1             1       9.98397       23.0496       183.174
158             1             1       10.9865       22.8976       184.309
159             1             1       10.8585       21.7277       185.299
160             1             1       11.8086       21.8459       186.442
161             1             1         11.64       20.6979       187.449
162             1             1       12.7249       20.6827       188.415
163             1             1       12.6395       19.6828       189.521
164             1             1       13.7573       19.6767        190.42
165             1             1       14.0453       21.0062       191.061
166             1             1       15.1021        20.821       192.072
167             1             1       15.6276       22.1386       192.683
168             1             1       14.7609       22.6306       193.808
169             1             1        14.333       21.7945       194.967
170             1             1       13.5362       22.6863       195.897
171             1             1       12.7054       21.9263       196.805
172             1             1       12.1922       23.0711       197.709
173             1             1       11.7396       22.4759       199.118
174             1             1       10.7691       23.4662        199.68
175             1             1       10.4889       22.8251       201.007
176             1             1       9.40413       23.6324       201.652
177             1             1       9.08036        23.141       203.089
178             1             1       10.2829       22.7371       203.981
179             1             1       10.3089       21.4396       204.643
180             1             1       11.3634       21.5607       205.649
181             1             1       10.9183       22.8142       206.331
182             1             1       12.0391       23.1775       207.345
183             1             1       12.7173       21.9263       207.798
184             1             1       13.7223       22.2946       208.847
185             1             1       13.0735       23.2568       209.815
186             1             1       14.0273       23.7958       210.882
187             1             1       14.6169       22.6056       211.459
188             1             1       15.5401       22.8326       212.643
189             1             1       15.1955       24.0964       213.422
190             1             1       16.3783       24.5725       214.271
191             1             1       16.5715       23.5049       215.279
192             1             1        17.663       23.6522       216.343
193             1             1        17.866       22.3629       217.131
194             1             1       16.6145        22.047       217.791
195             1             1       16.6017       22.6249       219.169
196             1             1       15.2976       22.1522       219.735
197             1             1       15.5018       21.2237       220.927
198             1             1       14.2352       21.0402       221.632
199             1             1       14.4741       20.0092       222.725
200             1             1       13.2541       19.5647       223.584
201             1             1       13.6337       18.6219       224.633
202             1             1       12.5034       18.2908       225.632
203             1             1       12.6387       19.4912       226.513
204             1             1       11.7142       19.4287        227.68
205             1             1       11.9985       20.6441       228.578
206             1             1       11.1631       20.3957       229.833
207             1             1       10.8752       21.7704        230.42
208             1             1       9.78927       21.4341       231.461
209             1             1       9.59064       22.6393       232.404
210             1             1       10.6255       22.6646       233.527
211             1             1       10.3373       21.6463       234.575
212             1             1       11.4041       21.7122       235.586
213             1             1       11.3157       20.5756       236.611
214             1             1       10.2407       21.0123        237.59
215             1             1       9.90842       19.8694       238.431
216             1             1       8.90167       20.2665       239.463
217             1             1       9.54255       21.3754       240.261
218             1             1       8.59275       21.9515       241.319
219             1             1       7.40416       21.1903       241.859
220             1             1           6.7       22.0256        242.93
221             1             1        7.6501       22.3624       244.041
222             1             1       6.78259       22.9996       245.066
223             1             1       7.55801        23.788        246.04
224             1             1       6.63643       24.4707       36.5735
225             2             1        12.199       24.0501       242.878
226             2             1         10.95       24.4927       243.658
227             2             1       11.5521        25.322       244.763
228             2             1       10.5452       25.6394       245.774
229             2             1       11.0853       26.5071       36.4338
230             2             1       10.1699      0.209424       37.5096
231             2             1       11.0435        1.1708       38.1835
232             2             1       10.2816       1.71262       39.4061
233             2             1       10.9406        2.6458       40.3559
234             2             1       9.95081       3.20829       41.4264
235             2             1       10.5533       3.97197       42.5738
236             2             1       9.62661       4.21496       43.7247
237             2             1       9.24821        2.9394       44.3136
238             2             1       8.26868       2.84185       45.4159
239             2             1        8.4441       3.96566       46.3843
240             2             1       7.53408       4.10921       47.5971
241             2             1       7.43736       2.79993        48.435
242             2             1       6.30005       2.79213       49.5063
243             2             1        6.2134       1.66634         50.53
244             2             1       5.01458        1.6281       51.4219
245             2             1       5.14109      0.489584       52.4474
246             2             1       3.87557      0.285457       53.2998
247             2             1       3.96738       26.0411       54.2638
248             2             1       2.83723       25.8446       55.2355
249             2             1       2.66399      0.261371       55.9082
250             2             1        1.6413      0.280105       57.0145
251             2             1       1.84622       1.38829       57.9804
252             2             1      0.687037       1.55948        58.982
253             2             1      0.202962      0.304907       59.4838
254             2             1       30.3209      0.804676       60.5068
255             2             1       30.9656       1.71571       61.4913
256             2             1       29.9671       2.02073       62.5582
257             2             1       30.6206       2.55136       63.8387
258             2             1       29.4752       3.01455       64.6325
259             2             1        30.056       3.72508         65.89
260             2             1       29.2809       4.71034       66.7407
261             2             1       27.9181       4.24863       67.1762
262             2             1       27.2607        5.2281       68.0694
263             2             1       28.0616       5.38322       69.3316
264             2             1       27.2971       6.38988       70.1547
265             2             1       28.1864       6.93462       71.3179
266             2             1       27.2969       7.40946       72.3932
267             2             1       27.5283       8.91636       72.6532
268             2             1       26.6675       9.28809       73.8991
269             2             1       26.8862       8.15993       74.9032
270             2             1       25.8525       8.37201       75.9437
271             2             1       25.9298       7.34489       77.1006
272             2             1       24.5183       7.36269       77.6401
273             2             1        24.335       6.42595       78.8042
274             2             1       25.5374       6.33775       79.6879
275             2             1       25.2177       5.51912         80.93
276             2             1       26.5644        5.3289       81.5979
277             2             1        26.522       4.61323       82.9475
278             2             1       27.4927       4.79685       83.9649
279             2             1       27.4418       6.20895        84.556
280             2             1       28.0282       6.22047       85.9301
281             2             1       27.7782       7.43096       86.6769
282             2             1       28.5087       7.41807       87.9926
283             2             1       28.3725       8.70093        88.813
284             2             1       29.2108       8.64273       90.0949
285             2             1       29.0252       9.96289       90.8399
286             2             1       27.8267       9.81669        91.775
287             2             1       27.4699       11.1559       92.3781
288             2             1       26.2817       10.9008       93.2515
289             2             1       26.6384       9.66642       94.1593
290             2             1       27.8224       9.79675       95.1514
291             2             1       27.6382       8.75082       96.1537
292             2             1       28.5739       8.57516       97.3245
293             2             1       28.2358       7.46567       98.3549
294             2             1       29.2834       7.27055       99.4386
295             2             1       28.8257       6.13921       100.402
296             2             1       29.9071       5.95244       101.401
297             2             1       29.5296       4.91763       102.471
298             2             1         30.68       4.78983       103.474
299             2             1       30.1947       3.77361       104.474
300             2             1      0.221615         3.305       105.259
301             2             1    -0.0970678       2.19754        106.31
302             2             1       1.03357       2.07264       107.311
303             2             1       1.34693       3.46853       107.819
304             2             1       2.70086       3.26177         108.3
305             2             1       2.60835       2.16811       109.347
306             2             1       1.59872       2.34957       110.527
307             2             1       2.03226        3.3847       111.616
308             2             1      0.944569       3.38649       112.636
309             2             1      0.331864        2.0201       112.893
310             2             1       30.4646       2.16483       113.965
311             2             1        30.758       3.30272       114.895
312             2             1       29.5012       3.73631       115.709
313             2             1       29.8625       4.63757       116.875
314             2             1       28.7018       5.00926       117.696
315             2             1       28.9655       6.07677       118.703
316             2             1       27.8919       6.15441       119.756
317             2             1       27.9933       7.25896       120.695
318             2             1       26.9303       7.27182       121.691
319             2             1       27.2617       8.34911       122.715
320             2             1       28.4483       7.96749       123.637
321             2             1       28.9826       9.17556       124.446
322             2             1       27.7736       9.76509       125.126
323             2             1       28.1617       10.4871       126.403
324             2             1       29.1374       9.74252       127.286
325             2             1       29.6307       10.6919       128.363
326             2             1       30.4022         9.866       129.386
327             2             1       30.9812       10.6995       130.537
328             2             1       1.03161       10.0593       131.276
329             2             1       1.41164       11.0219       132.406
330             2             1       2.52897        10.415       133.247
331             2             1       2.08331       9.14415       134.036
332             2             1      0.836315       9.43816       134.839
333             2             1      0.507579       8.23671       135.748
334             2             1       1.83822        7.7255       136.326
335             2             1       1.54374       6.62353       137.379
336             2             1      0.632093       7.36574       138.328
337             2             1      0.158636        6.4571       139.517
338             2             1       30.3478       7.11658       140.463
339             2             1       29.3933       6.09471       141.151
340             2             1       29.0011       6.60577       142.562
341             2             1       29.9375       7.86986       142.544
342             2             1       29.4523       8.60582       143.751
343             2             1          28.2       7.98904       144.364
344             2             1       27.7011       8.75471       145.472
345             2             1       28.6507       9.47201       146.372
346             2             1       27.9798       10.2458       147.482
347             2             1       28.9362       10.8746       148.493
348             2             1       28.4561       11.7475       149.596
349             2             1       29.5489       11.8959         150.6
350             2             1       29.1494       12.8885       151.649
351             2             1       29.9209       12.8339       152.904
352             2             1       30.6841       11.6419        152.93
353             2             1      0.511797       11.5008        154.09
354             2             1    -0.0716703       10.9182        155.36
355             2             1        1.0266       10.3561       156.234
356             2             1       2.01361       11.3879       156.747
357             2             1       2.76716       10.5951       157.816
358             2             1       1.94076       9.33419       157.938
359             2             1       2.47463       8.33974       159.001
360             2             1       3.91925       8.08037       158.702
361             2             1       4.43095       7.05974       159.673
362             2             1       4.21375       7.45235       161.075
363             2             1       5.36461       6.64016       161.731
364             2             1        5.4551       6.59789       163.236
365             2             1       6.61162       5.78266       163.746
366             2             1       6.36533       5.79394       165.265
367             2             1       6.66107       7.19375       165.794
368             2             1       7.48366       7.07804       166.999
369             2             1       6.94874       5.96767       167.937
370             2             1        7.7966       5.66088       169.153
371             2             1       6.98484       4.73243       169.953
372             2             1       7.73712       4.16383       171.179
373             2             1       6.70633       3.24858       171.835
374             2             1       7.44877       2.52757       172.929
375             2             1       8.54967       3.24748        173.65
376             2             1       9.07343       2.27395       174.724
377             2             1       10.1903       2.80901       175.639
378             2             1       10.2356       1.68897       176.644
379             2             1       11.1831       2.08373       177.778
380             2             1       11.1775      0.945653       178.813
381             2             1       12.2896      0.856763       179.777
382             2             1       12.2706       26.4883       180.642
383             2             1       13.2488        26.509        181.85
384             2             1       13.2496       25.2974         182.7
385             2             1       14.2917       25.2153        183.85
386             2             1       14.1469        24.089       184.826
387             2             1         15.36       24.2954       185.695
388             2             1       15.2806       23.0529       186.614
389             2             1       16.3998       23.1504       187.618
390             2             1       16.1605        21.934       188.516
391             2             1       17.1661       21.8568       189.574
392             2             1       17.6196       23.1681       190.352
393             2             1       18.8098       22.7681       191.149
394             2             1       19.4981       23.8878       191.893
395             2             1       18.5481       24.0305       193.097
396             2             1       19.0022       25.1839       193.975
397             2             1       17.9313       25.5689       195.011
398             2             1       17.3843       24.2632       195.639
399             2             1       16.4048       24.2902        196.81
400             2             1       16.8577       25.4312       197.716
401             2             1       15.8775       25.8002       198.868
402             2             1       15.2217       24.5217       199.048