LAMMPS data file via write_data, version 23 Jun 2022, timestep = 11112117

8487 atoms
2 atom types
8471 bonds
3 bond types
8455 angles
3 angle types
8439 dihedrals
3 dihedral types

0 36.89775039 xlo xhi
0 26.67072 ylo yhi
45.31346364515667 191.43814075480304 zlo zhi
0 4.597400512279569 0 xy xz yz

Masses

1 14
2 15

Pair Coeffs # lj/cut/omp

1 0.0914 3.95
2 0.1947 3.75

Bond Coeffs # harmonic/omp

1 449.5 1.53
2 449.5 1.53
3 449.5 1.53

Angle Coeffs # harmonic/omp

1 62.0967 114
2 62.0967 114
3 62.0967 114

Dihedral Coeffs # opls/omp

1 1.411 -0.271 3.145 0
2 1.411 -0.271 3.145 0
3 1.411 -0.271 3.145 0

Atoms # molecular

3351 26 1 13.483726360243265 15.020652524372958 49.820798235890834 0 0 0
937 45 1 12.013881123469933 15.1323988803267 57.96071742435262 0 0 0
1872 50 1 6.201062865850601 25.166934933491227 53.14384999035157 1 0 1
3767 25 1 13.370696550125272 17.610659298223105 46.1699911162364 0 0 1
1630 12 1 7.320310479524458 22.28010301813938 47.291396250317035 1 0 1
1897 20 1 16.748534345371624 26.046070510808253 58.4425843130737 0 0 0
3865 29 1 16.514606564360577 20.762081669613345 46.868331900515024 0 0 0
741 5 1 10.256560739606904 8.626561080810108 52.77015439464119 0 0 1
266 3 1 5.430227845573824 6.38323623960518 46.06692487411989 0 0 0
1632 12 1 9.023225715186385 21.556135581967837 48.97440650576074 1 0 1
6938 38 1 5.96659818258885 8.219392159374857 58.019779619122076 0 0 0
923 45 1 3.5596238691462596 15.852615900751717 47.53943336694533 0 0 0
2113 20 1 10.265922723692054 25.56826104404353 51.739102035501666 0 0 0
6782 35 1 6.971424341415174 3.6425850863362568 59.54282556484908 1 0 0
278 3 1 14.10147539086665 2.741725958486155 54.98715592558505 0 0 0
3003 21 1 15.121703131592964 8.320819049050355 45.62596614815885 0 0 1
932 45 1 8.08718655575553 14.809004014928489 56.01897633143592 0 0 0
1568 14 1 11.248471295298426 11.044894131415292 47.84437684131909 -1 0 0
7074 10 1 0.18820321736632256 14.137448633333921 49.3049502656906 1 0 1
2392 23 1 3.245072200849266 20.93315866169219 48.785113120966166 1 0 1
1879 50 1 11.614486999905502 23.420591096035622 57.89424924077314 1 0 1
811 8 1 2.284023628512 11.677880537025043 46.28604404023186 1 0 1
6783 35 1 7.8070122445868675 2.372842329103996 59.63017989816288 0 0 0
6987 56 1 1.1309581161548876 11.666519844125046 58.52915735549046 0 0 0
2109 16 1 6.9694834921950655 0.14673613824089526 47.98422372719902 0 1 1
924 45 1 3.8985210155354473 17.11813406313642 48.245013028327435 0 0 0
1635 12 1 9.576906237503183 21.417799434344236 52.03712791976899 1 0 1
183 1 1 2.0078291978593805 4.092803814925508 46.76487862931904 1 0 1
7530 6 1 6.854202794362596 16.848990328054388 59.204824552166635 0 0 0
781 7 1 9.99068554904815 9.995243112757551 58.22507920084712 0 0 0
7526 6 1 4.101972596357041 16.533103063828246 55.50810867991623 1 0 0
182 1 1 2.183572022692248 2.7755451695228235 46.12683541136704 1 0 1
931 45 1 7.116235918093593 14.836840924349257 54.870693603110794 0 0 0
3009 21 1 18.533484401083765 7.18410342502875 51.12617269744487 0 0 1
6748 54 1 4.912650209146356 5.406498468368106 56.22454561406305 1 0 1
898 9 1 6.319784124631786 14.202113272233307 47.803303890330646 0 0 0
7672 22 1 16.455870453131595 11.756726146593927 48.55052078965414 -1 0 0
7520 59 1 0.6783373785990544 18.260659041964598 50.096301880246884 1 0 1
1557 18 1 12.753414087799003 6.251663345003718 47.47089875232405 0 0 0
783 7 1 12.242486255901394 9.987338270804178 58.24484406619639 0 0 0
814 8 1 4.085243679253131 11.366314852210097 48.38191978865913 1 0 1
6936 38 1 4.60893252011027 9.27678547894223 56.500069304499796 0 0 0
958 45 1 1.7071305990689745 15.899013539261313 45.908412930172496 0 0 0
7972 61 1 6.083683199625247 20.57997980784249 57.9738005216142 1 0 1
736 5 1 7.892225228297223 8.444225985186659 48.12464291516429 0 0 1
7608 60 1 0.6058631165704538 20.82470357128275 57.469110369973706 0 0 0
1868 50 1 4.171937787857108 25.893497871852006 49.68160294150307 1 0 1
4139 19 1 11.85736366073747 24.272608145694633 47.89832291283461 1 0 1
273 3 1 10.313734245483934 4.3198464420665355 51.4943448198762 0 0 0
1409 23 1 12.827023323834737 18.368011568018463 59.508259602234844 1 0 1
7877 14 1 13.163703795616739 9.787103124210995 51.167358986322256 0 0 0
276 3 1 11.938992933615948 2.568514166773865 54.290978038698995 0 0 0
1022 11 1 6.973158140380939 18.605352119526867 45.90984525036244 0 0 0
2550 51 1 15.970223992884701 3.4237857207559466 47.77791775465916 0 0 1
813 8 1 3.056157775919308 12.515044141491986 48.56285406239257 1 0 1
1027 11 1 9.392640547847973 18.268339853216354 51.14574154726375 0 0 0
522 24 1 4.6119582673022625 7.840997909998495 50.0560691820411 0 0 0
742 6 1 11.529952597665119 8.361234878065538 53.63163662880789 0 0 0
4141 19 1 13.691398766479614 23.608422347906046 49.50631804381945 1 0 1
910 9 1 15.741937919673331 13.442032635071088 56.788318563520434 0 0 0
196 1 1 11.034354775157308 0.8246469402967778 56.77619178997385 1 0 1
520 24 1 2.6412482850660135 8.378008233780543 48.39114706067049 0 0 0
901 9 1 8.61712464144894 12.546944598427588 50.178973935530436 0 0 0
2551 51 1 17.244676073219647 3.55025021256655 47.30394639155505 0 0 1
895 9 1 5.2634300564406145 13.069925137628145 45.8052492003841 0 0 0
188 1 1 5.296039672891333 2.9741986139391687 51.477358030053004 1 0 1
4178 30 1 15.14187729299029 26.54210076804159 47.13588774205602 0 0 0
280 3 1 14.66990279052157 3.15650537885423 57.37319937667386 0 0 0
4138 19 1 10.378788578037998 24.56392532002326 47.68574279117546 1 0 1
3795 27 1 18.064764071106 19.62077528518204 53.95666070041852 0 0 0
7080 7 1 3.446672546620268 13.357209407469087 55.64498951772372 1 0 0
195 1 1 9.779776726285425 26.585280422529998 56.75751901842735 1 -1 1
3864 29 1 15.721784197285762 21.324438899697206 45.7336808229172 0 0 0
7969 61 1 4.1438235188839565 21.435341996752136 56.200776412267956 1 0 1
815 8 1 5.175739107616052 11.382287399064605 49.63059895691939 1 0 1
3793 27 1 16.38138092599377 18.077102149660632 52.810741364302096 0 0 0
281 3 1 15.937363058555624 4.011253619287873 57.63640796979867 0 0 0
3357 26 1 18.44729024314258 14.707241144768894 54.08879959406458 0 0 0
777 7 1 7.8735927545149655 11.350667148809311 54.780249757742965 0 0 0
3768 25 1 14.565578214621496 17.48165606007483 47.04696336281309 0 0 1
735 5 1 7.103343714445836 8.78150690461515 46.81646165343149 0 0 1
3158 18 1 14.737425237421565 5.148055317395447 51.267190334972376 0 0 0
192 1 1 8.44517568668564 2.5597645527181183 54.74502566505099 1 0 1
518 24 1 1.4330037834267149 8.116226148775485 46.07075995768297 0 0 0
1633 12 1 9.864318540618251 22.34617431816913 49.91013727770457 1 0 1
3355 26 1 16.702943256226316 14.232219426181729 52.411817196216624 0 0 0
7522 59 1 1.438107475056774 18.296560540888294 52.25299357791027 1 0 1
7967 61 1 2.9134032146331075 22.84902794827657 54.92520914692422 1 0 1
818 8 1 6.247516092038656 10.548167097007548 51.34371630495511 0 0 1
812 8 1 2.353695500307167 12.84834310781809 47.175594556327724 1 0 1
899 9 1 7.153182048336248 14.044017496390678 49.05923484706029 0 0 0
1880 50 1 11.826282327112205 24.450782598471505 58.957755868828436 1 0 1
3790 27 1 13.395616915548326 18.75811371060224 50.64797739575476 0 0 0
3866 29 1 15.909827861075648 20.488925699303387 48.1808665653109 0 0 0
3353 26 1 14.83743203428577 13.438718049408118 50.79832969771077 0 0 0
4087 29 1 14.800106901037402 22.409369630036736 46.04915621137432 0 0 0
897 9 1 7.132095448198074 14.547444082883729 46.60681087058759 0 0 0
1873 50 1 7.347246707218426 24.225604562982273 53.207698642715876 1 0 1
745 6 1 13.832168882614196 6.656900188141386 55.15985751078888 0 0 0
1874 50 1 7.288723146247186 23.30761351374918 54.40511655327147 1 0 1
936 45 1 11.207508568469878 13.863373143689495 58.5320694770498 0 0 0
934 45 1 10.553873571117592 14.355283240743354 56.15305157427148 0 0 0
1026 11 1 8.49038437237435 17.765711898786144 50.08991484953757 0 0 0
3824 27 1 12.28168551726666 20.504099541632975 47.425093526984305 0 0 0
2021 14 1 11.980339901586634 11.09517074050592 49.13784078650713 -1 0 0
7523 59 1 1.836541672405735 19.01260235348073 53.503235531525746 1 0 1
929 45 1 7.125312569422217 15.423162317566904 52.45491634271441 0 0 0
1875 50 1 8.538659847984057 22.590399556527743 54.52951056144958 1 0 1
267 3 1 6.230840018590052 5.0338501671607965 46.20482914393363 0 0 0
521 24 1 4.098409450470394 8.109052178747902 48.68691658378741 0 0 0
3868 29 1 18.029275410945626 21.054666080224173 49.433291308972485 0 0 0
4140 19 1 12.425921470998627 24.355287243435132 49.24759336174103 1 0 1
2107 16 1 6.984718709856083 0.23132083329274364 45.70807457022771 0 1 1
8421 64 1 8.224884214552766 25.38571784348788 59.327933641357674 1 0 1
279 3 1 13.777680430122675 3.414089592388361 56.275263709065584 0 0 0
7023 22 1 14.311484166717255 12.74001024821376 45.94278005439543 -1 0 0
1866 50 1 2.3362594064846247 26.416200770394486 48.2923414254314 1 0 1
3008 21 1 17.436118365405264 7.131943297700527 50.10654159906265 0 0 1
922 45 1 3.212337107465107 16.16917311159936 46.188582334703774 0 0 0
3347 26 1 9.753794078433996 16.412621845928737 46.567953775426 0 0 0
4145 19 1 16.816400169534816 23.31019418488144 53.03236335184816 0 0 1
2121 17 1 11.459210629441237 2.8863447192347587 47.223832757083834 0 0 0
900 9 1 8.311873710751458 13.04540284490497 48.748112234981235 0 0 0
1542 18 1 16.42194332360913 4.136125957227446 52.762600126064534 0 0 0
7525 6 1 3.4455445908095994 17.27420974437405 54.389845033293675 1 0 0
2548 51 1 15.552686294424864 4.762473204634258 45.758333698905005 0 0 1
819 8 1 7.276075090151939 10.175056691754193 52.567616304117415 0 0 1
2549 51 1 14.958383594815722 3.5908368396051924 46.59903799978135 0 0 1
7083 7 1 6.101117908714265 13.096833657544156 58.26453463201841 0 0 0
8189 61 1 2.2123250717238423 22.561051322973384 52.66394853382922 1 0 1
2871 64 1 5.25551900824555 26.45765417121624 55.84560316750406 1 -1 1
7631 22 1 17.50913276808233 12.283137159002521 47.53668178478028 -1 0 0
7479 14 1 16.145712379047133 9.059071392036392 52.88826098430524 0 0 0
903 9 1 10.049067916193493 13.56310338910002 52.19311383226822 0 0 0
3861 31 1 10.039538799673506 20.91588882719242 45.33328374634233 0 0 1
6658 23 1 4.339863994852043 21.16186971007827 49.73287401327825 1 0 1
7968 61 1 3.6831504140312976 21.555950376931555 54.771819791901194 1 0 1
1640 12 1 13.679956005601454 21.712835857325935 55.356169313913114 1 0 1
1639 12 1 12.30679985639018 21.126796534247575 54.83299958326214 1 0 1
2125 17 1 13.401868057276092 1.2979810590399226 50.75394788823159 0 0 0
1867 50 1 3.7414577036833987 25.893320175526036 48.289556991982074 1 0 1
1870 50 1 5.912027545648395 24.625934887729844 50.806494175211114 1 0 1
778 7 1 7.63951799953586 9.940537417981002 55.27134019269442 0 0 0
734 5 1 6.698005513148763 10.22203320118714 46.790583747151835 0 0 1
7973 62 1 6.869612975493639 20.18428419201717 59.12037568987381 1 0 0
2122 17 1 11.170403644201057 1.5166052343613414 47.47104454099937 0 0 0
3356 26 1 16.952598552449697 14.959258552920147 53.79418297597945 0 0 0
7079 7 1 3.3214658187140143 13.152101535630518 54.141407600138194 1 0 0
277 3 1 13.259476250275187 3.1395755759722874 53.709881259161264 0 0 0
1962 23 1 2.6915445551507595 21.623074632021513 46.60517229350979 1 0 1
8218 63 1 1.1994528018184045 24.458522711548586 59.393113445055825 0 0 0
660 14 1 14.929427812521372 8.688650582876502 52.12440523361609 0 0 0
2124 17 1 12.97915719951508 1.2273662845763869 49.269751175699824 0 0 0
1898 20 1 17.834004040272433 25.476032205529688 59.40082045558412 0 0 0
3771 25 1 16.619076993114874 16.092321149380314 48.52918417126469 0 0 1
3349 26 1 11.868941260893672 15.650413893938676 48.1613492818269 0 0 0
6986 56 1 0.7859929945162085 12.212891085875796 57.23893696040608 0 0 0
780 7 1 8.601499640871616 10.066310176340318 57.54963832725081 0 0 0
2553 51 1 17.53336769580787 2.1965525157808177 49.43820344305193 0 0 1
817 8 1 5.58845206436283 11.7100871576433 51.87060981418989 0 0 1
302 24 1 6.840323127065374 7.155565995488551 53.602317295786186 0 0 0
4592 23 1 4.364096949954543 20.616980509311393 51.132422685973694 1 0 1
3104 14 1 17.580347459930845 10.502670240334552 55.22766266164113 0 0 0
1023 11 1 6.373524738901916 18.849916985885137 47.2659947504748 0 0 0
1877 50 1 9.367594972570826 23.236382677932724 56.79202188380681 1 0 1
3002 21 1 14.024154089299374 9.349422207747821 45.51665583138583 0 0 1
6937 38 1 4.4982977078892254 8.549338969715023 57.857305505646806 0 0 0
2127 17 1 15.16524908489512 26.453941545650398 51.57623066968503 0 -1 0
6696 14 1 10.736143851624208 12.558711660721691 45.976227694566596 -1 0 0
3352 26 1 13.386881936063862 13.695913580452267 50.46111240859042 0 0 0
7077 7 1 2.023465467267798 13.731021360034186 52.28863733676029 1 0 0
7081 7 1 4.552229125137053 12.676979144458572 56.32014740015162 0 0 0
7318 58 1 2.127615203813997 15.464629897249324 58.79142610358395 0 0 0
3004 21 1 16.329247353914777 9.017584339590925 46.04843729178397 0 0 1
2115 20 1 11.150682643233113 24.565458402193112 53.560753635627755 0 0 0
906 9 1 12.318769984014084 12.375127895200261 54.133096229369684 0 0 0
926 45 1 5.0987160064784005 16.079341099170506 50.21671857785594 0 0 0
519 24 1 2.7185752117674333 8.034269010725748 46.86223057053224 0 0 0
2126 17 1 13.674600006860873 26.555033991319135 51.285913898210694 0 -1 0
7970 61 1 5.16398089824834 22.355432061248067 56.47992084741138 1 0 1
1025 11 1 7.492867511765458 18.5907074535909 49.657439451219304 0 0 0
524 6 1 15.574673455334912 8.872768231751666 57.507605341631205 0 0 0
194 1 1 8.701912147584652 0.4860734282713603 55.81313221914784 1 0 1
7527 6 1 4.089755835939967 17.478835122162465 56.67228007952569 1 0 0
935 45 1 10.091435895037304 13.821695092663854 57.54943021336708 0 0 0
1864 50 1 2.0344457990853217 25.048050965307738 46.38913644080241 1 0 1
6682 22 1 15.356772431273841 12.775421121079045 46.97606767128952 -1 0 0
2597 18 1 10.77179702760833 7.656512738393226 46.886787944226235 0 0 0
4143 19 1 15.102209010981943 22.25366186201847 51.23011996151616 1 0 1
7528 6 1 4.854192032820398 17.121218616830156 57.93655538398791 1 0 0
933 45 1 9.379081649022936 14.501018487064558 55.32930635503252 0 0 0
6780 35 1 5.1289324972741746 4.544399663411876 58.1913828734976 1 0 0
1894 20 1 14.216546683335986 24.77705492730781 55.813737966793205 0 0 0
2106 16 1 5.869322514096947 0.9271619606752652 46.4252326190719 0 1 1
8467 53 1 0.7095947077455755 3.524560907534429 57.26171213639799 0 1 0
4180 30 1 16.123832929906797 24.54429753164099 48.00158596447531 0 0 0
186 1 1 4.705757096832075 2.9368340107667423 48.91254343718797 1 0 1
6644 14 1 14.019891343636337 9.719128359918303 49.96253255790144 -1 0 0
189 1 1 5.749679528265952 1.6962546963245937 52.04479831070023 1 0 1
6778 54 1 0.4445679500043807 6.401343700704379 49.82612832365998 1 0 1
4482 33 1 0.7354083498985191 6.882673346981865 57.0065505265357 0 0 0
907 9 1 12.698964275849857 11.848668337070794 55.45537024994015 0 0 0
299 24 1 5.711144784703284 6.730701680006864 49.96949794944943 0 0 0
4147 19 1 18.23806207450994 23.27243707230906 55.00768512831607 0 0 1
4870 22 1 17.273282869777553 11.411644324672586 49.71623267819709 -1 0 0
6779 35 1 4.092081234363536 4.514780260161303 57.116421881722275 1 0 0
3794 27 1 17.20178461888005 19.42376164193509 52.695792687103925 0 0 0
300 24 1 6.201246846200546 6.272496092088012 51.3813289317244 0 0 0
1406 23 1 10.619411798297216 17.982624561832832 57.746290652262445 1 0 1
1876 50 1 8.759228223855164 22.138288937497 55.959388462594205 1 0 1
184 1 1 3.2803034413481846 4.345609998652475 47.46522486543112 1 0 1
7974 62 1 8.375573953795277 20.051286581416566 58.87073380649152 1 0 0
2114 20 1 10.61472290446045 25.872888294072702 53.12869276848722 0 0 0
5140 64 1 2.4659328450368077 0.44054258788052597 53.85055861865533 1 1 1
306 24 1 9.075899385735058 6.313460699635641 56.77540124573165 0 0 0
6466 60 1 1.1879822612328454 19.531984633606356 57.90366948472805 0 0 0
738 5 1 8.947216803253324 9.397149074141547 50.08604757973221 0 0 1
737 5 1 8.348882688752688 9.641292520137167 48.81597951943493 0 0 1
896 9 1 6.349449036965992 13.964880289014614 45.427233895151524 0 0 0
4142 19 1 13.93983901141228 23.219287452092136 51.05130069105718 1 0 1
1893 20 1 13.207007020964827 25.538125196315388 54.9213293658061 0 0 0
185 1 1 3.3925908429788882 3.0659999833396854 48.28273662715217 1 0 1
1869 50 1 4.812130512584443 24.586515107909854 49.748768805186586 1 0 1
3348 26 1 10.389837058333434 15.890849050353992 47.74642786485827 0 0 0
3510 60 1 2.513961123402763 19.82263651694566 58.56464968307915 0 0 0
1629 12 1 6.364765895533072 23.452268075489982 47.245284247789485 1 0 1
2120 17 1 11.346691711567486 3.054558445948631 45.79891880950237 0 0 0
1892 20 1 11.90952189717952 24.770528569287215 54.86090127331833 0 0 0
1024 11 1 7.226202607611667 18.075670137921524 48.25566588972997 0 0 0
3772 25 1 17.951177602546824 15.485673217619237 48.7283125714279 0 0 1
6744 54 1 2.4615069926666404 5.054103121113882 52.63400254025879 1 0 1
1174 18 1 11.783867736072212 6.590029844455317 46.37791931600602 0 0 0
3792 27 1 15.525254411952842 17.874625526747742 51.596037220220246 0 0 0
4759 64 1 1.4371203434514765 1.3367064856597888 51.839363406319116 1 1 1
779 7 1 8.700275509171025 9.517570107021362 56.14117399336161 0 0 0
3993 14 1 14.088523197665328 9.98640961963453 52.25618753362365 0 0 0
3007 21 1 17.882523305375443 6.680267385597779 48.720752503323716 0 0 1
8188 61 1 1.3339595762257488 22.534470655707313 51.37076285490633 1 0 1
1641 12 1 14.616227912669354 20.581772521463687 55.44224591187684 1 0 1
1895 20 1 15.11964298238081 25.699847406566633 56.66115061123095 0 0 0
2130 17 1 17.437428050394328 0.749019491038649 54.08768548507691 0 0 0
7084 7 1 6.222869761163138 12.36127367362211 59.592040859892585 0 0 0
2131 17 1 17.390956583713546 1.4877329878516738 55.453823364666235 0 0 0
271 3 1 8.41791508266688 3.868500668750862 50.0035822399922 0 0 0
1871 50 1 5.197195969261719 24.780077830668887 52.06648245444088 1 0 1
2128 17 1 15.392607853253864 0.7082011300793218 52.70335697312285 0 0 0
7082 7 1 4.783571599701633 12.48665684567802 57.89322705166634 0 0 0
820 8 1 7.1860455552109865 11.405822056464956 53.41960571820478 0 0 1
7519 59 1 0.13268993059125211 18.992609867858405 48.834560550987604 1 0 1
1404 23 1 8.985724093382146 18.598213791566394 56.035276560452004 1 0 1
7156 64 1 3.8467766774428886 26.61285944204426 55.46942753091557 1 0 1
8130 14 1 17.197478786530908 11.076371769944506 53.84153714830101 0 0 0
2112 20 1 9.382200391630835 26.521813681869638 50.98929242348216 0 0 0
3005 21 1 16.872193091816584 8.5136745295239 47.43386501429159 0 0 1
3350 26 1 12.214120054584418 15.82461272992985 49.667377621181224 0 0 0
283 3 1 17.651174287386425 3.9711571324144677 59.48414559576733 0 0 0
4483 33 1 0.6024451666845347 7.798237416408497 55.87644726146189 0 0 0
527 6 1 16.68325508005005 9.401437344652368 59.5269032407162 0 0 0
4330 18 1 12.038859541366616 6.222227011458291 48.77087375025907 0 0 0
3155 11 1 14.234872200066633 17.72901987072797 56.40627394852909 0 0 0
5805 18 1 18.303389187830412 5.328541267591504 55.661061350921564 0 0 0
5616 11 1 17.25304371388335 18.18225118237197 59.75148599869769 0 0 0
3452 64 1 0.4871115223512844 1.1026570249169945 50.61620624554299 1 1 1
746 6 1 13.968937877269196 7.550674406449154 56.38266487370528 0 0 0
743 6 1 11.960026505611081 6.867235067373003 53.581335949816406 0 0 0
6746 54 1 3.231204473325313 5.3466506522576855 54.94778782568687 1 0 1
1638 12 1 12.299417995374306 19.975148911206844 53.84554395859038 1 0 1
925 45 1 4.162304883848348 17.213830001107123 49.77496818939512 0 0 0
8466 53 1 1.696172681810628 2.809382395700135 58.16210619107013 0 1 0
3006 21 1 16.967012156338047 7.028172608855772 47.56986803989168 0 0 1
905 9 1 11.126462186276845 11.742075092024473 53.53435828853934 0 0 0
1646 12 1 18.236891810932285 21.971807390621727 59.24159452153705 1 0 1
1407 23 1 11.403896925271289 19.205370702315193 57.66517445349182 1 0 1
268 3 1 6.930216952402755 5.125060848940229 47.50001613257915 0 0 0
2123 17 1 11.527911046199913 1.1099443548624628 48.92830152250507 0 0 0
4179 30 1 16.465000178604242 25.93606448590582 47.482763819145724 0 0 0
927 45 1 4.604390879416056 15.548477378569492 51.57790564383447 0 0 0
823 11 1 15.654809682712383 17.16462603876408 56.496578630657815 0 0 0
3354 26 1 15.271644333431375 13.95275384410923 52.10900324557869 0 0 0
911 9 1 15.505936917809976 12.378975748680016 57.89109218093392 0 0 0
4556 64 1 2.953940423067381 1.8134832980420716 54.172246574882365 1 1 1
8464 53 1 2.647323765393816 0.9601848308220904 59.00821101471572 0 1 0
3791 27 1 14.890360517080119 19.09685795187488 51.16786089667704 0 0 0
1645 12 1 17.54182084887007 21.35302429861699 58.029845963915726 1 0 1
8186 61 1 0.40649406720267467 24.55848998770436 50.46440181886925 1 0 1
928 45 1 5.694609395342208 15.629491165095384 52.64178159029774 0 0 0
2110 16 1 7.757531998218195 0.5228974033440825 49.21744114659793 0 1 1
2256 64 1 2.171663556418108 0.2121950112724879 52.42927953590704 1 1 1
1062 11 1 13.109616892280137 16.622352516307505 53.131940025644724 0 0 0
6931 38 1 1.0866784227563455 9.013087221199525 51.720192805879236 0 0 0
1637 12 1 11.053617449967215 20.07134938710851 53.15541035553421 1 0 1
275 3 1 11.132748365870153 2.4369430965900114 52.98116969350419 0 0 0
3770 25 1 16.728784503382762 16.172616907151635 46.966135156526114 0 0 1
938 45 1 13.246406518355881 15.188571564235836 58.90557361140922 0 0 0
1400 23 1 5.812070722215317 19.720893697864128 52.69121592658233 1 0 1
5584 11 1 11.749400263189264 15.918198466735456 53.41779932756211 0 0 0
6781 35 1 6.459345471545267 3.7939335589428964 58.084950452924666 1 0 0
2051 11 1 10.560716819231851 17.396236365765063 51.8326593274101 0 0 0
269 3 1 8.35522286377215 4.3184974128926505 47.686605261901285 0 0 0
816 8 1 4.62173797576787 12.210143301637979 50.751202284694294 1 0 1
4146 19 1 18.169490862862254 22.72116543586137 53.68547856776415 0 0 1
7524 59 1 2.3746629339216576 18.3180527638113 54.79193296329264 1 0 1
7455 23 1 2.2693760202491235 20.202153501999938 46.68710230474574 1 0 1
7971 61 1 5.898091182980857 22.021088069272608 57.646053371718075 1 0 1
8285 11 1 10.512442719313658 16.714491917034845 53.18302124668363 0 0 0
6985 56 1 1.0486755205399123 11.15136353672097 56.135685485346855 0 0 0
1628 12 1 6.329003025871037 23.831978741744045 45.8014508328996 1 0 1
7076 10 1 0.9274495708034605 14.426171916732265 51.638584887776304 1 0 1
2111 20 1 8.54415022632922 26.017625885987314 49.87820062096643 0 0 0
3796 27 1 18.326819782989308 18.49779809061861 54.85288349659677 0 0 0
2436 23 1 3.678490185749398 21.792761486842558 47.63541162240628 1 0 1
272 3 1 9.420167234357685 3.2479777915877137 50.950185822029326 0 0 0
930 45 1 7.718043560160295 15.725189424847795 53.82467819771146 0 0 0
744 6 1 12.383139744394716 6.274547814117169 54.902547286710686 0 0 0
8465 53 1 1.5289998455466838 1.3169966978992262 58.16486765813497 0 1 0
3863 31 1 11.010885776005605 19.61320405471243 47.18217864560688 0 0 1
3297 11 1 13.037669336455346 17.243757448861317 55.463116317225236 0 0 0
7529 6 1 6.309164827951535 17.23098713611606 57.87847517432846 0 0 0
2596 18 1 9.985947780731903 7.7732789277362215 45.6134179702083 0 0 0
3862 31 1 10.764395755632671 19.64278674099198 45.66365172799435 0 0 1
733 5 1 6.397792024883232 10.123511024062198 45.344264240164755 0 0 1
1405 23 1 10.183558469841007 17.85201300088435 56.397330574358605 1 0 1
1878 50 1 10.378285052650655 22.601069827643574 57.74885180859228 1 0 1
191 1 1 7.0682135538948065 2.28250903740446 54.099027922729945 1 0 1
594 14 1 13.222405112956139 10.288018270503589 48.80791229274104 -1 0 0
7691 11 1 16.346292966775636 18.372942182487247 58.61229180514819 0 0 0
1642 12 1 15.903185746416689 21.090387038915956 56.12703257926405 1 0 1
6932 38 1 2.4688898241879507 8.785919262484372 52.337265674839415 0 0 0
6747 54 1 4.558478431232025 4.780318733698875 54.88473317992295 1 0 1
2903 18 1 16.980270912283157 5.405835164012637 53.45023343452533 0 0 0
7078 7 1 2.010695378193848 13.646413949912112 53.76885027959528 1 0 0
304 24 1 8.903195650142179 5.976566553424192 54.55837805971931 0 0 0
187 1 1 4.189190433212792 3.0628681947427 50.37753049901221 1 0 1
2633 11 1 16.0086311566792 17.06700498191625 57.88304399169502 0 0 0
190 1 1 7.098010731449418 1.8444600932762683 52.72076709091309 1 0 1
1770 18 1 13.118157894940435 6.3184841103361915 49.90853233533426 0 0 0
2660 11 1 13.796578442282723 16.474318252069686 54.4300700887356 0 0 0
371 18 1 15.997792700592852 4.4037844468141545 51.28546722025206 0 0 0
308 24 1 10.127718179350847 4.838220488132546 58.24701397622689 0 0 0
307 24 1 9.380545311387946 4.940940782639618 56.93108619950375 0 0 0
1583 18 1 14.212663432468982 5.332865009526924 49.81860193228077 0 0 0
4521 14 1 15.98284245646293 10.515196022309055 53.41011474845864 0 0 0
3826 27 1 13.029533736803808 19.201958919742573 49.2849565064852 0 0 0
193 1 1 8.3187881858601 1.8889187190491308 56.16003953406121 1 0 1
305 24 1 8.004678073228204 6.249318548129458 55.70461467100386 0 0 0
4137 19 1 10.059102713815575 23.88639595490514 46.33365346925879 1 0 1
2129 17 1 16.249883269448283 26.57541490606314 53.51995928188805 0 -1 0
8036 64 1 5.74327623243202 25.404579840057 58.23391944060487 1 0 1
5700 18 1 17.018209745002938 5.07648069693307 54.85904161629271 0 0 0
1402 23 1 7.1767064893869295 18.7206214229963 54.61184384759275 1 0 1
1401 23 1 6.9791649101666176 19.856432974091533 53.6970250555028 1 0 1
1636 12 1 11.01754223083105 21.14875028478165 52.190484069515996 1 0 1
6939 38 1 6.153314008330313 7.718394808114389 59.427440538156176 0 0 0
1631 12 1 7.648764766984452 22.040248500194604 48.78939870278698 1 0 1
8217 63 1 0.9282167217128527 24.29948634673036 57.9560259452152 0 0 0
1865 50 1 1.6717129114097447 26.406677854673745 46.87026287383273 1 0 1
6745 54 1 2.078496439198142 4.887164229534189 53.96050065010594 1 0 1
3825 27 1 12.562360380913677 20.553787763599708 48.93279148281098 0 0 0
526 6 1 16.42060150853669 7.854550451679876 59.338745826971184 0 0 0
7075 10 1 1.1101151035234926 14.889818696592407 50.19503661401218 1 0 1
2108 16 1 7.923613150507154 0.008662247430085396 46.80796807096031 0 1 1
6929 38 1 0.7050909452840103 10.785538296856656 49.879549683762804 1 0 0
6934 38 1 4.0540707235013596 9.672816801460485 54.15763539907296 0 0 0
1725 23 1 5.691679179233668 20.8629726318803 51.78294814038919 1 0 1
4144 19 1 15.937878456583118 22.19718900743185 52.51249593811771 0 0 1
7966 61 1 2.5228512653467905 23.609824168062758 53.73795495338308 1 0 1
138 14 1 11.562299743080118 12.466184530695864 47.29293226487181 -1 0 0
310 24 1 11.842734370087381 5.971911266180578 59.56559013874329 0 0 0
6935 38 1 3.5350789972610652 9.220307611367144 55.45224385842034 0 0 0
2552 51 1 18.202170966050993 3.064630486227966 48.44212447847493 0 0 1
274 3 1 11.551963482769 3.7060110797394845 52.275911114797196 0 0 0
1408 23 1 12.360204567903263 19.53227053481936 58.72418908776892 1 0 1
7521 59 1 0.8414097999315298 19.156483096859713 51.284924675796816 1 0 1
2960 11 1 18.656971954152773 17.743570294324954 59.50259400742829 0 0 0
3276 64 1 5.11279190947229 0.7169585593050661 56.98066205267854 1 1 1
7317 58 1 0.7421995446180485 15.819288998871325 58.642856001330486 0 0 0
740 5 1 10.476538399187023 7.901614792516998 51.34012167840239 0 0 1
525 6 1 15.20999088359141 7.763042458128309 58.52535717199279 0 0 0
270 3 1 9.15520577998562 4.49314694056765 48.88494248286402 0 0 0
1403 23 1 8.72663280392278 18.556940668646842 54.549398406363636 1 0 1
4182 30 1 18.043978570887536 25.186928669522114 49.40158532440739 0 0 0
913 9 1 16.716767882022292 13.928434381765149 59.01581696804139 0 0 0
909 9 1 14.788096663168027 13.399568161702273 55.74677765225176 0 0 0
747 7 1 12.060366580394232 9.363253273760403 59.64261324240478 0 0 0
303 24 1 7.812056788455274 6.001800212712538 53.483112518813094 0 0 0
301 24 1 5.681533287341383 7.013479919672752 52.647798733349134 0 0 0
904 9 1 10.706354163541372 12.15380375160603 52.208928120565446 0 0 0
782 7 1 11.101729265624428 9.52663015897347 57.40043012639681 0 0 0
6933 38 1 2.822610326085496 9.897498355141352 53.29248126895551 0 0 0
523 6 1 14.888500634265439 8.692007996815034 56.170481571490534 0 0 0
908 9 1 13.619579317505263 12.503905161985498 56.29679269636382 0 0 0
912 9 1 15.853947266036489 12.754469738993118 59.322358240172605 0 0 0
6742 54 1 1.6901123003485201 5.902329622252701 50.3712257968089 1 0 1
4532 64 1 5.771324667855846 0.24390895909882904 58.18044513686013 1 1 1
8187 61 1 1.6643616183243841 23.780026503081196 50.58740377154726 1 0 1
3867 29 1 17.057812355352546 19.97785173683078 48.94395022736083 0 0 0
3769 25 1 15.856169671029113 17.13630857056495 46.11553707964323 0 0 1
7372 64 1 3.5233336502754327 1.4772361696743461 55.50825113972477 1 1 1
902 9 1 9.493234320298004 13.588483785788227 50.815043715573836 0 0 0
1634 12 1 9.409465536405358 22.762614447345552 51.23290469633515 1 0 1
6930 38 1 1.1094650942044038 10.43177264256973 51.39481152893092 1 0 0
4177 30 1 14.456142297491642 25.973604025867694 45.93289231892249 0 0 0
309 24 1 11.331419099913301 5.825106968344216 58.315682897543425 0 0 0
282 3 1 16.71850680247573 3.1809729139840504 58.60669018865815 0 0 0
739 5 1 9.460754342169496 8.021366280023578 50.166270747019944 0 0 1
1896 20 1 16.238143272770063 25.063592670223127 57.53101841146797 0 0 0
1643 12 1 15.242556997161342 21.377038413943623 57.34866441886874 1 0 1
6743 54 1 1.2569003793009315 5.420644291129379 51.779001151434336 1 0 1
4481 33 1 1.8256655127376735 6.8018915254071395 57.949611691836495 0 0 0
1644 12 1 16.294143366890097 22.05909292031981 58.18978499448668 1 0 1
2733 22 1 16.82562192487351 13.031808879892909 46.44058911725458 -1 0 0
4181 30 1 17.25833805659453 24.046257896334424 48.87402395069748 0 0 0
7531 6 1 8.070909815667228 15.994743501141716 59.04307909125999 0 0 0
2410 64 1 6.782651619450893 24.888801383809437 59.26513466132267 1 0 1
2833 60 1 2.716555271858007 19.032724853056997 59.8907687960204 0 0 0