LAMMPS data file via write_data, version 29 Oct 2020, timestep = 32000000

10752 atoms
2 atom types
10752 bonds
3 bond types
10752 angles
3 angle types
10752 dihedrals
3 dihedral types

-1.4019591925125496e-01 3.1008115919238300e+01 xlo xhi
-1.2113307625790526e-01 2.6791853076229280e+01 ylo yhi
 9.5276502360302402e+00 2.7347170976304318e+02 zlo zhi

Masses

1 14
2 15

Pair Coeffs # lj/cut/omp

1 0.0914 3.95
2 0.1947 3.75

Bond Coeffs # harmonic/omp

1 449.5 1.53
2 449.5 1.53
3 449.5 1.53

Angle Coeffs # harmonic/omp

1 62.0967 114
2 62.0967 114
3 62.0967 114

Dihedral Coeffs # opls/omp

1 1.411 -0.271 3.145 0
2 1.411 -0.271 3.145 0
3 1.411 -0.271 3.145 0

Atoms # molecular

1             1             1       7.62551       1.34584        272.07
2           1           1      7.7655     0.80458       9.555
3            1            1      8.74587      1.53403      10.5152
4            1            1      8.66985     0.819026       11.828
5            1            1      9.72612      1.38107      12.8354
6            1            1      9.90104      0.60671      14.0998
7            1            1      10.6257      1.38858      15.1979
8            1            1      10.9122     0.571963       16.471
9            1            1      11.3434      1.29527      17.7272
10            1            1      11.8802     0.498257      18.8608
11            1            1      12.4467       1.3619      20.0203
12            1            1      12.8282     0.662704      21.3422
13            1            1      13.6472      1.40378      22.4015
14            1            1      13.8979     0.403282      23.5175
15            1            1      14.4201      1.18187      24.6727
16            1            1      15.0232     0.277162      25.8394
17            1            1      15.2606      1.17773      27.0533
18            1            1      15.8731     0.409105      28.2108
19            1            1       16.609      1.29848      29.2729
20            1            1      17.0951     0.490782      30.4838
21            1            1      17.4479      1.30812      31.7483
22            1            1      17.7167     0.409396      32.9433
23            1            1      18.1158       1.1693      34.2398
24            1            1       18.981     0.313067      35.0855
25            1            1      19.1702        1.033      36.4299
26            1            1      19.8444     0.192635      37.5087
27            1            1      20.0994     0.937746      38.8282
28            1            1      20.6421     0.103151      40.0288
29            1            1       21.046         1.08       41.121
30            1            1      21.8053     0.424479       42.288
31            1            1      22.2354      1.39245      43.3969
32            1            1      22.3239     0.530944      44.6961
33            1            1      22.8284      1.31277      45.8924
34            1            1      23.4736     0.475252      46.9721
35            1            1      23.8327      1.25786      48.1981
36            1            1      24.5421     0.368288      49.2348
37            1            1      24.6835      1.15571      50.5441
38            1            1      25.5203     0.492757      51.6227
39            1            1      25.8562      1.28013      52.8608
40            1            1      26.4616     0.410562      54.0436
41            1            1      26.6049       1.1627      55.3877
42            1            1      27.0316     0.191135      56.5215
43            1            1      27.3494      1.03132       57.786
44            1            1      27.3584     0.138982      59.0353
45            1            1      27.7444      1.04275      60.1727
46            1            1      27.9492     0.271082      61.5342
47            1            1      27.9337       1.1155      62.7862
48            1            1       27.454     0.298775      63.9843
49            1            1      27.3958      1.18154      65.2851
50            1            1      26.6881     0.449277      66.4214
51            1            1       26.477      1.34216      67.6512
52            1            1      26.1372     0.418907      68.8052
53            1            1      25.7067      1.20096      69.9963
54            1            1      25.3938     0.321586      71.1809
55            1            1      25.1151      1.05853      72.4948
56            1            1      24.6322     0.119718      73.5884
57            1            1      24.0971     0.924144       74.739
58            1            1       23.678     0.184781      75.9924
59            1            1      23.1939     0.956806      77.1867
60            1            1       22.796     0.137387      78.3535
61            1            1      22.1109     0.875792      79.4449
62            1            1      21.9454     0.126887      80.7378
63            1            1      20.9751     0.759932      81.7498
64            1            1      20.7929    0.0304333      83.0099
65            1            1      20.2414     0.941537      84.1389
66            1            1      20.0329     0.161057      85.4354
67            1            1      19.3378      1.08653      86.4592
68            1            1      18.7902     0.356917      87.7202
69            1            1      18.2322      1.29262      88.7781
70            1            1      17.7705     0.495661      90.0511
71            1            1      17.1037      1.41247       91.147
72            1            1      16.7252     0.718339      92.4417
73            1            1      16.1931      1.59022      93.5808
74            1            1      15.6467     0.674647      94.6327
75            1            1      15.3332      1.47549      95.9157
76            1            1      14.6647     0.609413      96.9451
77            1            1      14.0764      1.52693      98.0292
78            1            1      13.5895     0.780279      99.2769
79             1             1       12.7683       1.53857       100.309
80             1             1       12.4512      0.705842       101.516
81             1             1       11.7341       1.50593       102.558
82             1             1       11.6666      0.823768       103.911
83             1             1       10.8553       1.58722       104.988
84             1             1        10.574      0.776101       106.234
85             1             1       9.78044       1.51592       107.334
86             1             1        9.6835      0.818755        108.71
87             1             1       9.13514       1.69966       109.832
88             1             1        9.0248      0.862154       111.153
89             1             1       8.20915       1.65238       112.222
90             1             1        7.9212      0.818874        113.46
91             1             1       7.18718       1.60818       114.538
92             1             1       6.84552       0.78019       115.765
93             1             1         6.132       1.47227       116.961
94             1             1       5.64675      0.643032        118.16
95             1             1        4.9962       1.36207       119.319
96             1             1       4.80146      0.538942        120.62
97             1             1       4.00895       1.31537       121.688
98             1             1       3.51028      0.486433       122.848
99             1             1       3.11689       1.36968       123.971
100             1             1       2.45467      0.574836       125.144
101             1             1       2.18444        1.5456       126.302
102             1             1       1.53326      0.709942       127.404
103             1             1       1.30812       1.42309       128.734
104             1             1      0.809277      0.493643       129.886
105             1             1      0.258203       1.27571       131.107
106             1             1       30.9216      0.496899       132.318
107             1             1       30.1733       1.27348       133.325
108             1             1        29.786      0.505049       134.542
109             1             1       29.2872       1.31755       135.656
110             1             1        28.639      0.595748       136.854
111             1             1       28.0289       1.47039       137.965
112             1             1       27.5592      0.579061        139.13
113             1             1       27.0836       1.32013       140.379
114             1             1       26.5434      0.444608       141.528
115             1             1       26.1192       1.39278       142.711
116             1             1       25.8762      0.570201       143.985
117             1             1        25.352        1.3983       145.094
118             1             1        24.879      0.571274       146.338
119             1             1       24.2072       1.43339       147.383
120             1             1       23.6417      0.587192       148.506
121             1             1        23.269       1.55719       149.567
122             1             1       22.6013       0.94573       150.806
123             1             1       22.3374       1.74359       152.082
124             1             1       21.6545       1.03101       153.226
125             1             1       21.6396       1.63579       154.559
126             1             1       20.9139      0.729215       155.548
127             1             1        20.602        1.5739       156.814
128             1             1       19.7135      0.906883        157.85
129             1             1       19.6193       1.62641       159.137
130             1             1       18.6973      0.910698       160.122
131             1             1       18.7202       1.50279       161.545
132             1             1       17.7906       0.79521       162.484
133             1             1       17.7414       1.32542       163.904
134             1             1       16.7832      0.603603       164.926
135             1             1       16.7532       1.24824       166.319
136             1             1       15.6768      0.548441       167.073
137             1             1       15.6058       1.16202       168.439
138             1             1       14.6672      0.486965       169.394
139             1             1       14.6309       1.20177       170.772
140             1             1       13.5187      0.626867       171.656
141             1             1       13.4186       1.38351       173.022
142             1             1       12.7358      0.631125       174.168
143             1             1       12.8392       1.35229       175.545
144             1             1        12.088      0.644831       176.673
145             1             1       11.8576       1.44991       177.988
146             1             1       10.9614      0.740296       178.971
147             1             1       10.7513        1.5422       180.286
148             1             1       9.96279      0.618192       181.249
149             1             1       9.56909       1.33183       182.583
150             1             1       8.85112      0.566432       183.734
151             1             1       8.66263       1.43109       185.021
152             1             1         7.876      0.586015       186.049
153             1             1       7.76186       1.35164       187.428
154             1             1       7.03988      0.666205       188.623
155             1             1       7.04146       1.42976       189.941
156             1             1       6.15735      0.681855       190.969
157             1             1       6.08696       1.46166       192.266
158             1             1       6.66921      0.628598       193.413
159             1             1        6.8623       1.47035       194.685
160             1             1       7.57204      0.760599       195.837
161             1             1       7.46905       1.48565       197.232
162             1             1       8.11717      0.726241       198.407
163             1             1       8.12064       1.62409       199.623
164             1             1       8.49468      0.909094        200.87
165             1             1        8.7751       1.59697        202.16
166             1             1       9.73051      0.947961       203.152
167             1             1       9.66114       1.66662       204.473
168             1             1       10.7923        1.1467       205.379
169             1             1       10.6182       1.53118       206.837
170             1             1       11.7242      0.845284       207.728
171             1             1       11.6741       1.42503       209.171
172             1             1       12.7084      0.871863       210.094
173             1             1       12.6842       1.59644       211.447
174             1             1       13.7534       1.08239       212.409
175             1             1       13.5422       1.68724       213.772
176             1             1       14.6182       1.10317       214.715
177             1             1       14.4703       1.56847       216.166
178             1             1       15.5167       1.10762       217.192
179             1             1        15.427       1.85636       218.554
180             1             1       16.4398        1.2864       219.568
181             1             1       16.4096       1.70847       221.076
182             1             1       17.5929       1.12591       221.895
183             1             1       17.4494       1.64639       223.361
184             1             1       18.4614      0.946141       224.295
185             1             1       18.5968       1.69668       225.596
186             1             1       19.4291      0.823777       226.501
187             1             1       19.7393       1.50208       227.875
188             1             1       20.3543      0.587946       228.958
189             1             1       20.6027       1.39204       230.265
190             1             1        21.234      0.463117       231.348
191             1             1       21.8616       1.21722       232.525
192             1             1       22.5822      0.433659       233.644
193             1             1       23.0759       1.28313       234.852
194             1             1       23.2852       0.43742       236.091
195             1             1       23.9213        1.3267       237.131
196             1             1       24.2771      0.627315       238.412
197             1             1       24.7762       1.52558       239.491
198             1             1       25.0343      0.619833       240.721
199             1             1       25.7904       1.38405       241.743
200             1             1       25.9972       0.64698       243.045
201             1             1       26.8258       1.34784       244.131
202             1             1       27.1424      0.468084       245.311
203             1             1        27.841       1.14098       246.431
204             1             1       28.0991      0.479294       247.819
205             1             1       29.0324        1.2642       248.693
206             1             1       28.9991      0.694347       250.121
207             1             1       30.0426       1.31342       251.063
208             1             1       30.1632      0.470633       252.322
209             1             1       30.8881       1.23506       253.414
210             1             1       30.9245      0.584601       254.823
211             1             1      0.569785       1.42679       255.815
212             1             1      0.827341      0.708807       257.144
213             1             1       1.68813       1.48037       258.084
214             1             1       1.93468      0.621563       259.324
215             1             1        2.6724       1.32302       260.449
216             1             1       2.77654      0.596371       261.744
217             1             1       3.58624       1.41107       262.827
218             1             1       3.92731      0.471099       263.992
219             1             1       4.62156       1.24495       265.114
220             1             1       4.70618      0.504943       266.448
221             1             1       5.56251       1.25322       267.493
222             1             1       5.90282      0.457304       268.732
223             1             1       6.55611       1.30391       269.847
224             1             1       6.71971      0.516679       271.149
225             2             1       10.4841       3.53638       268.963
226             2             1       10.2933       3.39683       270.491
227             2             1       11.5729        3.5367       271.306
228             2             1       11.3148       3.17124       272.752
229             2             1       12.5046       3.36436       9.65937
230             2             1       12.1599       3.18564       11.1445
231             2             1       13.3341       3.44163       12.0663
232             2             1       13.0812       3.00474        13.508
233             2             1       14.2034       3.47759       14.4386
234             2             1       13.9971       3.19659       15.9149
235             2             1       15.2224       3.50134       16.7784
236             2             1       15.2678       2.99785       18.2341
237             2             1        16.199       3.79653       19.1776
238             2             1        16.493        3.0261       20.4417
239             2             1        17.205       3.79398        21.552
240             2             1       17.3316       2.83391       22.7227
241             2             1       18.0488       3.55946       23.8295
242             2             1       18.2281       2.63747       25.0296
243             2             1       19.0278       3.30758       26.1045
244             2             1       19.2989        2.4689       27.3463
245             2             1       19.9094       3.32428       28.3725
246             2             1       20.1104       2.58573       29.6866
247             2             1       20.9879       3.31249       30.6744
248             2             1       21.0018       2.69867        32.135
249             2             1       22.0755       3.28728       33.0722
250             2             1       21.8178       2.83693       34.4951
251             2             1       22.6437       3.65509        35.473
252             2             1       22.9524       2.93515       36.7968
253             2             1        23.729        3.6825       37.8456
254             2             1        24.099       2.72456       39.0124
255             2             1       24.7819       3.43884       40.2097
256             2             1       24.8951       2.55287       41.4061
257             2             1       25.6785       3.35788        42.467
258             2             1       25.9301       2.62357       43.7501
259             2             1       26.5761       3.41694       44.8681
260             2             1       26.9638       2.56361       46.0785
261             2             1       27.5586       3.27414       47.2199
262             2             1       27.8961       2.43576       48.4604
263             2             1       28.7914       3.13525       49.4263
264             2             1       28.8575       2.51694       50.8374
265             2             1       29.7576       3.17693       51.8609
266             2             1       29.6898        2.4407       53.1151
267             2             1       30.6009       3.11773       54.2116
268             2             1       30.4269        2.4862       55.5854
269             2             1      0.195195       2.95105       56.6692
270             2             1    -0.0522941       2.36183       58.0405
271             2             1      0.707868       2.96897       59.1972
272             2             1      0.496155       2.28721       60.5389
273             2             1        1.2145       2.83806       61.7826
274             2             1      0.505814       2.24637       62.9985
275             2             1      0.816964       2.81938       64.3964
276             2             1    -0.0990982       2.26296       65.4848
277             2             1    -0.0832743       2.96917       66.8557
278             2             1        30.122       2.34284       67.9044
279             2             1       30.1411       3.10239       69.2453
280             2             1       29.3173       2.33469       70.3187
281             2             1       28.8319       3.10543       71.5397
282             2             1       28.6699       2.30376       72.8425
283             2             1       28.1583        3.1564       73.9921
284             2             1       27.7913       2.34179       75.2026
285             2             1        27.408       3.28149       76.3331
286             2             1       27.0214       2.48018       77.5672
287             2             1       26.4156       3.30344       78.7067
288             2             1       25.9393       2.46255       79.8851
289             2             1       25.4546       3.30604       81.0766
290             2             1       24.6089       2.46454        82.003
291             2             1       24.5608       3.33137       83.2372
292             2             1       23.7583       2.61406       84.3209
293             2             1       23.6176       3.36472       85.6735
294             2             1       22.7769       2.61164        86.751
295             2             1       22.5039       3.48292       87.9168
296             2             1       21.6206        2.8553       88.9818
297             2             1       21.6229       3.62304       90.2533
298             2             1         20.91       2.88518        91.388
299             2             1       20.6694       3.75198       92.5978
300             2             1       20.0467        2.9634       93.7379
301             2             1       19.5299        3.7475       94.9598
302             2             1       18.9157        2.8998       96.1436
303             2             1       18.5619       3.74938       97.3767
304             2             1       17.8685       2.87548       98.3913
305             2             1       17.1131       3.75143       99.3727
306             2             1        16.342       3.03054       100.476
307             2             1       16.1904       3.70541        101.84
308             2             1        15.588       2.90649       103.009
309             2             1       15.4384        3.6308       104.338
310             2             1        14.626       2.80911       105.389
311             2             1       14.4215        3.5471       106.735
312             2             1        13.705       2.76441       107.854
313             2             1       13.6274       3.63885       109.085
314             2             1       13.1869       2.85628       110.266
315             2             1       12.5914       3.78463       111.268
316             2             1       12.0945       3.01325       112.464
317             2             1       11.7564       3.78479       113.652
318             2             1       11.1101       2.95925       114.713
319             2             1       10.5557       3.85787       115.748
320             2             1       10.0172       2.95722       116.885
321             2             1       9.63483       3.69495       118.222
322             2             1       9.20496        2.8353       119.341
323             2             1       8.84808       3.60814        120.58
324             2             1       8.46241       2.79724       121.827
325             2             1       7.69772       3.53608       122.922
326             2             1       7.41333       2.53939       124.029
327             2             1        6.5423       3.28398        125.04
328             2             1       6.18685       2.52591       126.377
329             2             1       5.35159       3.31427       127.399
330             2             1       5.29966       2.48893       128.734
331             2             1       4.60446       3.32921       129.871
332             2             1       4.36505       2.43987       131.043
333             2             1       4.00013       3.40301       132.188
334             2             1       3.26197       2.68105       133.331
335             2             1       3.14221       3.54679       134.538
336             2             1       2.21489       2.88189       135.564
337             2             1       1.80499       3.72592       136.721
338             2             1       1.25284       2.98485       137.953
339             2             1      0.581773       3.76013        139.07
340             2             1     0.0447464       2.90778       140.188
341             2             1       30.5681        3.7061       141.299
342             2             1       29.9966       2.89687       142.357
343             2             1       29.6923       3.67861        143.68
344             2             1       28.9127        2.9957       144.753
345             2             1        28.703       3.66026       146.136
346             2             1       27.9177       2.88189       147.131
347             2             1       27.5916       3.67283       148.368
348             2             1        27.102       2.88618       149.543
349             2             1       26.7875       3.77759       150.747
350             2             1       26.3341       2.94364       151.951
351             2             1       25.8824       3.80066       153.124
352             2             1       25.6737       2.98653       154.397
353             2             1       24.9239       3.81195       155.404
354             2             1       24.5238       2.92007       156.613
355             2             1       23.8087       3.63518       157.739
356             2             1       23.5068       2.90596        159.08
357             2             1       22.8374       3.77537        160.16
358             2             1       22.1331       3.05185       161.315
359             2             1       21.9258       3.91209       162.542
360             2             1         21.21       3.16152       163.639
361             2             1       21.0975       3.94719       164.908
362             2             1       20.4092       3.11049       165.978
363             2             1       20.0437       3.92102       167.179
364             2             1       19.6244       3.07941       168.319
365             2             1       18.8114       3.77609       169.386
366             2             1       18.5394       2.88072       170.577
367             2             1       18.0134       3.71021       171.775
368             2             1       17.5239       2.86031       172.966
369             2             1       16.8234       3.63327       174.066
370             2             1       16.4679       2.83695       175.297
371             2             1       15.9091       3.65914       176.389
372             2             1       15.7348       2.83522       177.627
373             2             1       14.9873       3.61333       178.728
374             2             1       14.8019        2.7892       179.968
375             2             1       13.9804       3.53283       181.049
376             2             1        13.664       2.73169       182.306
377             2             1        13.193       3.57679       183.502
378             2             1       12.7878       2.70186       184.721
379             2             1       12.4559       3.46419       185.976
380             2             1       11.9058       2.69088       187.209
381             2             1       11.7023       3.53022       188.457
382             2             1       11.6518       2.75348       189.783
383             2             1        11.324       3.62277       190.994
384             2             1       11.0126        2.7277        192.22
385             2             1       10.9617       3.53398        193.55
386             2             1       10.9591       2.65644       194.815
387             2             1       11.3479       3.42873       196.094
388             2             1       11.4327       2.66818       197.381
389             2             1       12.0746       3.42547        198.51
390             2             1       12.0338       2.65801       199.814
391             2             1       12.5759       3.47292       200.975
392             2             1       12.9176       2.66854       202.265
393             2             1       13.5832       3.46286        203.38
394             2             1       14.0452       2.68957       204.616
395             2             1       14.8913       3.58095       205.534
396             2             1       15.0882        2.8602       206.867
397             2             1       15.8415       3.63198         207.9
398             2             1        16.196       2.82174       209.144
399             2             1       16.8459       3.67195       210.172
400             2             1       16.8519       3.00876       211.504
401             2             1       17.8206       3.71987       212.491
402             2             1       17.8528        3.1158       213.875