LAMMPS data file via write_data, version 23 Jun 2022, timestep = 11111117

9706 atoms
2 atom types
9690 bonds
3 bond types
9674 angles
3 angle types
9658 dihedrals
3 dihedral types

0 36.89775039 xlo xhi
0 26.67072 ylo yhi
15.84142524879205 220.91017915113878 zlo zhi
0 6.4519095124238515 0 xy xz yz

Masses

1 14
2 15

Pair Coeffs # lj/cut/omp

1 0.0914 3.95
2 0.1947 3.75

Bond Coeffs # harmonic/omp

1 449.5 1.53
2 449.5 1.53
3 449.5 1.53

Angle Coeffs # harmonic/omp

1 62.0967 114
2 62.0967 114
3 62.0967 114

Dihedral Coeffs # opls/omp

1 1.411 -0.271 3.145 0
2 1.411 -0.271 3.145 0
3 1.411 -0.271 3.145 0

Atoms # molecular

1 6 1 8.4930994264861 1.4416279221295325 25.4540292114145 0 0 0
2 6 1 9.922171103356158 0.9295266159649325 25.93387016149716 0 0 0
3 6 1 10.26076278542079 1.4411498955093243 27.365104493406022 0 0 0
4 6 1 11.58870089969028 0.8547574677217054 27.84973452043524 0 0 0
5 6 1 11.879931415255903 1.4794513985288535 29.25026657761839 0 0 0
6 6 1 13.02001451158896 0.6821986410721639 29.861253332501523 0 0 0
7 6 1 13.688649033955357 1.5051182851485965 30.973919335419186 0 0 0
8 6 1 14.577594930169385 0.5992625887071917 31.843755360466922 0 0 0
9 6 1 14.947363287610866 1.2971964030744332 33.16091496298221 0 0 0
10 6 1 16.079026529331834 0.6959045012891734 33.98070041156412 0 0 0
8959 56 1 1.9212871736601393 19.087452645456523 26.784203122365493 0 0 0
765 5 1 9.560695934276733 7.841815788599911 21.08071741632477 0 0 0
4919 14 1 17.36777723196114 25.567811215569293 18.453194322376735 0 0 0
3935 46 1 16.256707076400165 16.805986828697456 16.544552089535262 0 0 0
8283 55 1 4.526606077916205 12.778196445946676 25.365564503139026 0 0 0
7654 51 1 2.461332913357011 3.6928501846271655 23.418494108140507 0 0 0
1757 58 1 5.794533902556786 19.667781266504196 20.908070695480255 0 0 1
219 6 1 3.467249376339497 1.3857779552475449 19.63470251480765 0 0 0
220 6 1 4.883989318155574 1.1925141065641471 20.15995492409341 0 0 0
221 6 1 5.010691866602834 1.2896225612124135 21.67565658468327 0 0 0
222 6 1 6.422135466672 0.9674966557272883 22.07349106060919 0 0 0
223 6 1 6.8317758685198005 1.1217115897645815 23.544588762511765 0 0 0
224 6 1 8.303899686359456 0.9319790551212299 24.022533470429202 0 0 0
304 5 1 12.347308216119675 2.975823945016147 24.0977081267758 0 0 0
305 5 1 12.960702409876284 3.6932491574363535 25.311964857867935 0 0 0
306 5 1 14.035481133122971 2.9100556431517997 25.997594969069084 0 0 0
307 5 1 14.68420819198862 3.5672242839332418 27.174516996093047 0 0 0
308 5 1 15.748497747218503 2.71899650231143 27.8494278728608 0 0 0
309 5 1 16.386604444618186 3.514309217489566 29.06746296885359 0 0 0
310 5 1 17.082229517431543 2.675183912791739 30.059694518327657 0 0 0
5933 35 1 4.121605921085062 11.713159746121278 35.26748040901694 0 0 0
2054 14 1 2.6701653312267855 24.187596933757597 17.000633444584277 0 0 0
764 5 1 9.185121587990572 7.323653672178403 19.69788092525583 0 0 0
3478 23 1 11.146035952003173 9.844628014434392 17.07730477267091 0 0 1
8118 54 1 2.4187886650490884 9.265649082335845 28.65558748114162 1 0 0
8962 56 1 3.863643848440442 18.30051310732858 30.232350418844117 0 0 0
8293 55 1 12.697936796090985 12.101586147803646 35.02349140626105 0 0 0
1214 59 1 7.010110111419051 12.30800349113568 17.292539111433296 0 0 0
383 5 1 9.848880644840378 3.490959396024481 21.310104782745842 0 0 0
384 5 1 11.090701758367143 2.9652326436119276 22.08489283871335 0 0 0
385 5 1 11.282878872725743 3.724009897567692 23.394936556373732 0 0 0
386 4 1 6.60571454677204 5.797109927627117 23.621591486917445 0 0 0
387 4 1 7.66721654737806 4.975109617701155 24.45931633656566 0 0 0
388 4 1 8.402621217883167 5.864130512197547 25.494150542686313 0 0 0
389 4 1 9.471804323585978 5.062651126008391 26.23639219068621 0 0 0
390 4 1 10.157530746880841 5.8918957250294435 27.30746146507176 0 0 0
391 4 1 11.049766062116664 5.0859751522377366 28.249542331761333 0 0 0
392 4 1 11.65069463237016 5.949269367082507 29.424367620635696 0 0 0
393 4 1 12.492435832766938 5.1292999364615905 30.444022916020966 0 0 0
394 4 1 13.162746837214986 6.01786670272344 31.490130686250602 0 0 0
395 4 1 14.301491640261435 5.318720260036993 32.11523013042998 0 0 0
396 4 1 14.9006752095158 6.002575584026666 33.28557346401742 0 0 0
397 4 1 15.9578359210516 5.170157202045185 33.974484484103556 0 0 0
398 4 1 16.50322979216989 5.83596964834621 35.23045997416773 0 0 0
3035 21 1 11.998484148234612 4.728290660454256 17.72847411091936 0 0 0
2586 17 1 14.525920588178677 1.262908196141114 21.00953051350608 0 0 0
4090 30 1 11.395718111476716 18.962639491383566 17.113357304930403 0 0 0
8512 56 1 5.559032773180315 13.67560837967039 32.5400949037559 0 0 0
8737 59 1 4.617213972130034 17.144089297212403 25.119007043226368 0 0 0
4536 16 1 18.46795880586265 20.275050384246033 19.50940714673942 0 0 1
606 4 1 3.581669386614747 6.147724373532462 19.527915511707683 0 0 0
607 4 1 4.3290965436094515 5.223203424032546 20.490923985844972 0 0 0
608 4 1 5.20594483629773 5.930974062776111 21.58308448641589 0 0 0
609 4 1 6.136525512504052 5.044254305312933 22.387691770642157 0 0 0
689 5 1 12.306360890701354 7.161940658870767 23.97699948912519 0 0 0
690 5 1 12.796519419049917 8.117532308459124 25.096670131153644 0 0 0
691 5 1 13.8496857911854 7.417481772046466 25.834581632805744 0 0 0
692 5 1 14.170639112976314 7.945789958613101 27.313850426736003 0 0 0
693 5 1 15.372137229924638 7.234734544489875 27.995993874655767 0 0 0
694 5 1 15.954997337176536 8.070614604662529 29.208025383535492 0 0 0
695 5 1 17.11571356662614 7.3305961705205815 29.877605545720055 0 0 0
7208 36 1 1.0808801172082831 24.671307115197898 32.73650833906229 0 0 0
3484 49 1 17.974509054738302 11.601960330856194 19.69644527430754 0 0 0
8968 56 1 8.741927318957236 18.112320694886055 36.07989422403775 0 0 0
3928 26 1 10.663909470559606 13.681015007882328 15.943889445465073 0 0 1
985 6 1 4.038506248041845 10.268941648771746 19.192373293740154 0 0 0
8509 56 1 3.3608503993793137 14.66653630102345 29.318718616497627 1 0 0
1754 58 1 3.7770430471759426 19.045832967557278 17.474298120811984 0 0 1
7748 52 1 4.077066281481614 4.972342858874315 30.494854084257344 0 0 0
8960 56 1 2.341673468705104 18.397482791003238 28.097929986511573 0 0 0
766 5 1 10.658530480212091 7.178210374753712 21.882530637438816 0 0 0
767 5 1 11.187461067477269 7.832706844293599 23.178456023505525 0 0 0
768 6 1 9.48739218171598 9.794252809314896 26.260490690311933 0 0 0
769 6 1 10.171646941326328 10.668705643905627 27.292095290160255 0 0 0
770 6 1 10.989514158901402 9.731635895682446 28.255990584582086 0 0 0
771 6 1 11.970810532823181 10.63399075075511 29.061720241020154 0 0 0
772 6 1 12.776952247349401 9.67384871398781 29.98490501736262 0 0 0
773 6 1 13.56582148562825 10.513009027863129 31.004517629992467 0 0 0
774 6 1 14.496864075694347 9.723729213360539 31.937801936083044 0 0 0
775 6 1 15.256243712670587 10.528268606369458 32.964338454359634 0 0 0
776 6 1 15.807596896832326 9.654129841932178 34.06272026075658 0 0 0
3263 27 1 18.511428675772237 9.352568809114706 25.95783645001046 0 0 0
8035 53 1 3.3368797787123667 7.525144995063707 24.67610685919358 0 0 0
8736 59 1 3.7088701035597276 16.283078724372093 24.2258607234653 0 0 0
9337 63 1 2.8585468497902644 22.84263398630028 28.022332684428427 0 0 0
3714 27 1 18.593390828195393 14.012816286754802 25.719377571645854 0 0 0
9253 45 1 1.8881630686792872 21.482157860452002 20.736757081352394 0 0 0
688 39 1 7.502037705609122 7.378628381157462 17.82824097545122 0 0 1
4096 30 1 16.184393980016097 19.099711314004097 23.033439464869815 0 0 0
986 6 1 4.754319137058197 9.6125728603923 20.274206119641082 0 0 0
987 6 1 5.640461070513898 10.462813544450004 21.040877298261755 0 0 0
988 6 1 6.349210699532281 9.642906014904923 22.12297244596578 0 0 0
989 6 1 7.00490484593336 10.509523552366222 23.153889929725807 0 0 0
990 6 1 7.830577563170204 9.65965217173297 24.13624123227148 0 0 0
991 6 1 8.477576309657035 10.508844311605065 25.27742666172684 0 0 0
992 59 1 8.706725100859291 12.180359912880796 19.248325437895673 0 0 0
993 59 1 9.518438747874963 11.417879357326848 20.214781808150654 0 0 0
994 59 1 10.155882988565383 12.341090187242553 21.226792631239064 0 0 0
995 59 1 10.842343530576358 11.589678757306189 22.358577146125306 0 0 0
996 59 1 11.723902136447471 12.499953196494271 23.200907724218105 0 0 0
997 59 1 12.551782682037743 11.720633903352825 24.228145226078688 0 0 0
998 59 1 13.381278376106556 12.551189241753868 25.220220465564005 0 0 0
999 59 1 14.226811588624363 11.67511385952669 26.169505197406217 0 0 0
1000 59 1 15.116345361810874 12.42096304319992 27.18780300596928 0 0 0
1001 59 1 15.821658723965733 11.51662898893585 28.12656693960171 0 0 0
1002 59 1 16.527635092664514 12.360721490758882 29.177515912878793 0 0 0
1290 7 1 3.008266022044075 14.877807139724858 16.958126595228894 0 0 0
9252 45 1 0.4900522088890241 20.916440626202416 20.343035752413307 0 0 0
2583 16 1 12.306963801112278 0.3993368477860496 17.851686908590416 0 0 1
8282 55 1 3.479707401757706 12.050666720471897 24.565656590082032 0 0 0
1755 58 1 4.314953125966239 19.649039280548255 18.76797845152313 0 0 1
3034 21 1 10.869057642338456 5.490516536169597 17.05095770325017 0 0 0
1215 59 1 7.928518097321962 11.426784840352246 18.190823861067678 0 0 0
1216 7 1 6.891995512034452 14.16419159624274 21.941220187866243 0 0 0
1217 7 1 7.338962920712275 15.054415119626041 23.06762973355964 0 0 0
1218 7 1 8.18778441190962 14.178122794374637 23.97639016757629 0 0 0
1219 7 1 8.743241575317814 15.049059663872091 25.14807634426026 0 0 0
1220 7 1 9.772855496093287 14.303051742802042 25.93490283593391 0 0 0
1221 7 1 10.395675079341697 15.079285909079665 27.05572165705227 0 0 0
1222 7 1 11.284127739210295 14.272423312107609 27.91612929136787 0 0 0
1223 7 1 12.02673089306547 14.985331460747172 29.022562365784946 0 0 0
1224 7 1 12.88104389140063 14.077795784566979 29.836634800452373 0 0 0
1225 7 1 13.756408041204098 14.89159004841604 30.828205973703447 0 0 0
1226 7 1 14.616626934322257 14.050737918101621 31.76117873028779 0 0 0
1227 7 1 15.330878490742272 14.833060558896754 32.903093457364626 0 0 0
1228 7 1 16.07417582056327 13.929682504018439 33.909085038237926 0 0 0
2584 16 1 12.846614743694929 1.166155559208622 19.097471273682114 0 0 1
8032 53 1 1.3389466410960489 8.527878924088194 21.53428516316628 1 0 0
9505 4 1 8.962715672553612 25.905057440955638 31.444386578874152 0 0 0
8121 54 1 4.9181541724445665 10.179519361484779 31.670805891056855 0 0 0
312 5 1 18.88741269534185 2.748193693955467 31.9804396825047 0 0 0
3253 22 1 15.636927352008678 7.56552417024796 16.409210419838594 0 0 1
1291 7 1 3.4457511524283966 14.047628439199974 18.103655306272348 0 0 0
1292 7 1 4.411274946079093 14.816761098467115 19.00021619579635 0 0 0
1293 7 1 5.236335323556109 14.023818896161059 20.060521934755766 0 0 0
1294 7 1 6.190709931113424 14.898193440437103 20.82403820831777 0 0 0
1376 10 1 11.973305881004537 17.085239036425524 22.74740366822939 0 0 0
1377 10 1 12.793511951896575 16.358738635924368 23.726562548361144 0 0 0
1378 10 1 13.485437062991753 17.237280147193022 24.814983050885495 0 0 0
1379 10 1 14.392835120764877 16.348985016327703 25.617152230313422 0 0 0
1380 10 1 15.16850648712669 16.91559630780578 26.762824664849564 0 0 0
1381 10 1 16.154651393917973 16.111243127288432 27.66628598508766 0 0 0
1382 10 1 16.53301505441643 16.966171216054274 28.926124925366658 0 0 0
1383 10 1 17.43154523885072 16.200729740875634 29.903795561373016 0 0 0
983 43 1 2.2078506753676375 10.43731488148421 17.36746958464389 0 0 1
3256 22 1 17.65931668169552 6.86213760820577 19.6948872998007 0 0 1
2590 20 1 15.577311547429979 3.1513524861804436 16.544778628285936 0 0 0
686 39 1 5.951974790017582 7.372607044554844 15.913807279489307 0 0 1
4098 30 1 17.72660270950742 18.831760433265586 25.06310750374019 0 0 0
7211 36 1 3.372074382790191 25.553044798209534 35.821515769490205 0 0 0
1596 10 1 8.662955429546694 17.075375523526674 18.917757856131953 0 0 0
1597 10 1 9.656683709192924 16.25045953609528 19.712770487718103 0 0 0
1598 10 1 10.320251643917802 17.061216261659965 20.814301626473195 0 0 0
1599 10 1 11.15836731666008 16.248106448011526 21.765818998785505 0 0 0
1600 25 1 11.935462310913833 19.27478000471741 29.191471086221547 0 0 0
1601 25 1 13.144294445792774 18.451240630606797 29.72884308285411 0 0 0
1602 25 1 13.810554429952855 19.117483588170526 30.937008081485892 0 0 0
1603 25 1 14.976259386025772 18.40167748416755 31.67287235494996 0 0 0
1604 25 1 15.188265724393656 19.119901930328183 33.001052463370684 0 0 0
1605 25 1 16.12715403994815 18.367427606700645 33.91394061284255 0 0 0
778 6 1 17.250136553660482 9.514698573375913 36.16050172586741 0 0 0
1004 59 1 18.242597531504625 12.622044884811057 30.947251965679783 0 0 0
8511 56 1 4.910522275846454 14.450120005667902 31.387486212541724 0 0 0
7426 49 1 0.8647028835339503 0.9578308971851448 26.551183095582704 0 0 0
8120 54 1 4.031085886343208 9.293957090306716 30.760436111944735 0 0 0
4535 16 1 17.37298338791628 21.009832607475737 18.72187997207813 0 0 1
7746 52 1 2.105710508937753 5.027526712728953 28.733546942107672 0 0 0
604 4 1 2.0859345845729216 6.1893340437755295 17.34839772029509 0 0 0
8963 56 1 4.905237556469811 18.958423635081555 31.04219384544926 0 0 0
311 5 1 17.84636918697025 3.448888197232808 31.133358356085076 0 0 0
1672 25 1 6.818791333700446 18.874967496533504 21.724715333285516 0 0 0
1673 25 1 7.284389511397552 19.630357803338143 22.97030182147162 0 0 0
1674 25 1 8.38855814685738 19.01400043120808 23.786613292553373 0 0 0
1675 25 1 8.728906218280597 19.707918055441226 25.091957054518208 0 0 0
1676 25 1 9.894508794476032 18.994999219979128 25.765885107712354 0 0 0
1677 25 1 10.174328766238267 19.517813957845 27.14547234959477 0 0 0
1678 25 1 11.295162725165895 18.760492883384398 27.822199351037888 0 0 0
1758 13 1 7.9202128898321655 21.05402270084158 18.151137624302994 0 0 0
1759 13 1 8.530835027688259 21.953604315331294 19.253702758146513 0 0 0
1760 13 1 9.539904124558518 21.217056231713574 19.994604029442804 0 0 0
1761 13 1 10.1170085235879 21.80646518145713 21.29300217415194 0 0 0
1762 13 1 11.131496394467781 20.944547590432173 21.937653704411893 0 0 0
1763 13 1 11.928025533425485 21.603755115528735 22.98555075421487 0 0 0
1764 13 1 12.725861816377577 20.551881120096755 23.76622398185945 0 0 0
1765 13 1 13.191171608975058 21.226348620043193 25.05054390017569 0 0 0
1766 13 1 14.218448843880251 20.51400916899404 25.945380805553423 0 0 0
1767 13 1 14.597165440696909 21.229569813378777 27.247891675300366 0 0 0
1768 13 1 15.863742421450022 20.606963768133884 27.723493022631086 0 0 0
1595 10 1 7.974169017653934 16.2238474584356 17.807732683249462 0 0 0
9496 4 1 2.2505993075949626 25.05812238025478 22.256080741201195 0 0 0
7427 49 1 1.225220398539099 1.4664468969231785 27.948445818498165 0 0 0
3255 22 1 17.187681429108654 7.53596194794276 18.39792436110338 0 0 1
6761 45 1 3.0057937539141895 20.185343713967445 34.56752908050665 0 0 0
3262 27 1 17.84786824968447 10.10163036911611 24.841803112351464 0 0 0
8279 55 1 1.3422521708961963 12.778257608904777 21.346105414572015 1 0 0
1982 14 1 8.399931401577392 23.39116649962727 23.771221048176173 0 0 0
1983 14 1 8.841204698383176 24.05345545920073 25.06947797466458 0 0 0
1984 14 1 9.9852576678912 23.288613329174648 25.872315964675625 0 0 0
1985 14 1 10.411198981212907 23.934620940023336 27.110899063715884 0 0 0
1986 14 1 11.53212290988416 23.117382281319475 27.744635508616426 0 0 0
1987 14 1 11.971605306723795 23.627401487116998 29.14561154117054 0 0 0
1988 14 1 13.003980830855157 22.89515325394141 30.018693940107116 0 0 0
1989 14 1 13.776646462628102 23.74186103604936 31.06194806030323 0 0 0
1990 14 1 14.599873193215327 22.90153769677488 32.00033706536483 0 0 0
1991 14 1 15.372630720114648 23.760008466546534 33.00514180021505 0 0 0
7747 52 1 3.108820735277458 5.796722125381378 29.62102865472916 0 0 0
687 39 1 6.260184126679787 7.9078670058728395 17.245447499711663 0 0 1
7434 49 1 7.310394803686298 0.4822366681376522 34.28173417925389 0 0 0
8965 56 1 6.435218717608064 18.80967675610285 33.0210157055426 0 0 0
381 5 1 8.20926792767427 3.6170896903156913 19.33457443823734 0 0 0
8036 53 1 4.412635270392074 8.23360833397037 25.488382818272473 0 0 0
1003 59 1 17.445583887509503 11.589917856452052 30.168681661669183 0 0 0
2055 14 1 3.4275747558951783 23.31013103127952 17.981479073571105 0 0 0
2056 14 1 4.205932288401438 24.119042385490523 19.051999996174274 0 0 0
2057 14 1 5.167604178299226 23.25334328354369 19.88603629419311 0 0 0
2058 14 1 5.755573710341063 24.10930918764224 21.047182266615618 0 0 0
2059 14 1 6.749237031200638 23.25422905784675 21.844093256656542 0 0 0
2060 14 1 7.297014495438704 24.100253253351156 22.98673706789769 0 0 0
2140 48 1 10.225287107358211 26.090992177733554 21.31434775158593 0 0 0
2141 48 1 11.290862051867544 25.39587339674543 22.14127006609025 0 0 0
2142 48 1 11.977065843319362 26.131069268398562 23.307184894780406 0 0 0
2143 48 1 12.849337956656202 25.083635239600216 23.961635755783362 0 0 0
2144 48 1 13.804781262034242 25.7448663302876 25.017374655417456 0 0 0
2145 48 1 14.51799922385904 24.844934948904726 25.942243435271152 0 0 0
2146 48 1 15.290870541256467 25.59499748553998 26.96097663652202 0 0 0
2147 48 1 15.84596680412263 24.67099746579537 28.08047088679012 0 0 0
2148 48 1 16.603826421411714 25.550798977810253 29.062480930214505 0 0 0
2149 48 1 17.458786792637063 24.7288035470118 30.019590102442287 0 0 0
7652 51 1 0.8674126447723883 3.5778806794205176 21.47429358038032 0 0 0
9501 4 1 5.9452420514171544 26.019315877069847 27.469852939010345 0 0 0
9503 4 1 7.492481359874433 26.102584240075092 29.382279598301555 0 0 0
8033 53 1 1.891870252642784 7.656354931394748 22.634046253972482 1 0 0
6759 45 1 1.6353643598787597 20.21994783716831 32.45520385846014 1 0 0
9340 63 1 4.468977033234363 23.320011802209883 31.698267809721468 0 0 0
2362 48 1 8.714351894875604 25.92668174290551 19.301085042217622 0 0 0
2363 48 1 9.885686686080644 25.29308753743296 20.028813712525473 0 0 0
2364 17 1 16.10034884181171 1.3961643722589345 22.902685275051937 0 0 0
2365 17 1 17.239289475146286 0.7893352940250756 23.66398545241451 0 0 0
301 19 1 6.0459651989618415 2.96172872319494 16.057328243821107 0 0 1
1606 25 1 16.615738959676072 19.147517691821193 35.10720812809589 0 0 0
303 19 1 7.68322901499163 2.960193726683471 18.10621535815211 0 0 1
4614 32 1 11.307619971003328 23.53278721645111 16.658204878699504 0 0 0
9263 45 1 9.45490918079631 21.47716745767127 30.966819150970334 0 0 0
1607 25 1 17.749177262425864 18.43857912319144 35.82261686016147 0 0 0
4917 35 1 15.727311540102844 25.537959911675745 16.420082652504306 0 0 1
2587 17 1 15.689291401434776 0.6271486368554698 21.68093436269222 0 0 0
984 43 1 2.855116074868693 9.603952530525811 18.490197316370633 0 0 1
9494 4 1 0.7200602762013211 25.253153022446963 20.234409535100827 0 0 0
9498 4 1 3.9946802320780765 25.045229234842505 24.193006051403188 0 0 0
9495 4 1 0.935973700046228 25.602159999849544 21.726661261441784 0 0 0
2812 21 1 12.514390578740043 5.4468508410707726 18.98082160568846 0 0 0
2813 21 1 13.720500126189627 4.760589298445697 19.67523303567126 0 0 0
2814 21 1 14.208823492979521 5.417491157673304 20.95110476109753 0 0 0
2815 21 1 15.511839680558582 4.9070955680718855 21.67133508927242 0 0 0
2816 21 1 15.950678076958447 5.61319861675348 22.904032493197832 0 0 0
605 4 1 2.8280074075014787 5.348566061946132 18.46691445695541 0 0 0
8124 54 1 7.051183685108664 9.36888157027281 34.68088938444094 0 0 0
2817 21 1 17.00323912228576 4.844125560760878 23.681842287639945 0 0 0
5932 35 1 2.6227976493052405 11.658710171488329 34.84507592612427 0 0 0
8740 59 1 6.751580866380735 16.33226406745275 28.3101002121586 0 0 0
9506 4 1 10.090705911549552 25.089184582175708 32.101428613324984 0 0 0
9257 45 1 4.713117239365854 21.69480358522736 24.963722472846975 0 0 0
9341 63 1 5.79429985323884 22.887122659806643 32.319926623440935 0 0 0
6370 12 1 1.6474170930787708 15.773648549274487 32.259107881582466 1 0 0
3260 27 1 16.141235905584704 10.027131976394548 22.848688686627042 0 0 0
3261 27 1 16.95201852991158 9.286952787703367 23.90021398275404 0 0 0
6369 12 1 0.6835998890819353 16.583374445307836 31.32427195896207 1 0 0
3929 27 1 11.769941835777797 14.493986996249417 16.572218638851755 0 0 0
9266 45 1 11.43056681440412 20.752897602730467 34.20062075964134 0 0 0
9344 63 1 7.901865885577191 23.242986131676304 35.60526690259388 0 0 0
3481 27 1 13.791040505180987 9.469814346799469 19.918974323516405 0 0 0
8743 59 1 9.289398880998299 16.9460911801607 31.11967534964924 0 0 0
3482 27 1 14.825157370657282 10.16681147886071 20.861512590773273 0 0 0
3483 27 1 15.136679179993063 9.28389050916139 22.02113347812175 0 0 0
1992 14 1 16.027463745844454 22.85062942982842 33.96126916677728 0 0 0
8734 59 1 2.245899698812866 16.210890426247342 22.14497222844934 0 0 0
8745 59 1 10.990153841163655 16.907140850174404 32.9360280830882 0 0 0
9497 4 1 2.698820125930104 25.684175466761534 23.6045061304937 0 0 0
3708 27 1 13.833882365292943 13.672705609732715 19.877793541777493 0 0 0
3709 27 1 15.059415064754665 14.214144210133716 20.478539274803396 0 0 0
3710 27 1 15.411447105391943 13.637773693070796 21.846945240660403 0 0 0
3711 27 1 16.461990007128367 14.50785549172741 22.56856302024497 0 0 0
3712 27 1 16.727199518767577 14.22541989181719 24.01598010579245 0 0 0
763 5 1 7.976276694030629 8.002590455739712 19.159425124619048 0 0 0
3479 23 1 12.487935853204869 9.384999512796657 17.677168756910312 0 0 1
3713 27 1 18.103830003788808 14.660274375211031 24.474791265752508 0 0 0
3930 27 1 12.308353649689659 13.864282323724218 17.84712416783186 0 0 0
3931 27 1 13.480881908254414 14.369675783894373 18.52055103679752 0 0 0
3254 22 1 15.961469745613671 6.96438787106023 17.752445484129392 0 0 1
3707 49 1 17.44123332332421 12.335819739908175 18.45169928082193 0 0 0
9267 45 1 12.59758572337232 21.35261401737485 34.94695484342829 0 0 0
382 5 1 9.472243825902959 2.9280846336294006 19.914673437023485 0 0 0
9339 63 1 4.2003630240569025 22.8084474109007 30.236313923655867 0 0 0
9265 45 1 11.090459062463355 21.441409405267983 32.897576069984936 0 0 0
4092 30 1 13.067689289633863 18.95536040556679 19.026430537843133 0 0 0
4093 30 1 14.261018481715718 18.32048066873835 19.61646418485925 0 0 0
4094 30 1 14.510741152874242 18.9929564853339 20.95583359382232 0 0 0
4095 30 1 15.700862727611879 18.437205806629077 21.689535112011832 0 0 0
399 4 1 17.663000285977976 5.135160713594001 35.84666302292821 0 0 0
216 2 1 1.87176191260569 0.8821968593754249 16.118466662275917 0 0 1
4533 16 1 16.01415655014907 21.35069115524304 16.74893576005648 0 0 1
4534 16 1 16.79349971095443 20.27894803475475 17.53727401223047 0 0 1
5931 35 1 2.4068527662068693 12.006042294235478 33.37332628774824 0 0 0
1756 58 1 5.420380606814205 18.945257282041684 19.596561489730657 0 0 1
9262 45 1 8.2538882362469 20.888087446368043 30.252525159783794 0 0 0
8958 56 1 0.6077483949250764 18.58014888967652 26.248652292876002 0 0 0
4538 32 1 14.014860157482767 22.94006016707367 19.487469768131017 0 0 0
4539 32 1 14.102777553778312 23.492814232766786 20.912733492495395 0 0 0
4540 32 1 15.404869682348213 22.80884821797422 21.47928077365176 0 0 0
4541 32 1 15.99213713027555 23.51865685795014 22.691427711453777 0 0 0
4542 32 1 17.092588355661924 22.738556761597522 23.499368484087988 0 0 0
9264 45 1 9.790955966690282 20.879972968675677 32.30794405510556 0 0 0
1769 13 1 16.224204665339265 20.923421143748357 29.162247985630394 0 0 0
9338 63 1 2.9051264369378176 23.23347041421496 29.504725729761 0 0 0
4615 32 1 12.474050119305575 22.91685901313706 17.351209266352818 0 0 0
4616 32 1 12.8019951825809 23.469453707516305 18.697145954953182 0 0 0
8278 55 1 0.22800552392398987 12.115130889866837 20.51069832807972 1 0 0
1594 9 1 7.036082364376803 17.073851271283377 16.983022149019863 0 0 1
9342 63 1 6.350059908654293 23.45851258186997 33.66454262701707 0 0 0
1229 7 1 16.746242892160335 14.797482574325663 34.941638924653176 0 0 0
8046 53 1 12.662263445165099 8.070941819477612 35.063184306125 0 0 0
217 2 1 2.159295405979514 1.6065252658192282 17.43213625507081 0 0 1
2361 48 1 8.308026053661383 25.27356284407401 18.006152815281585 0 0 0
12 6 1 17.786005187065133 0.8064164650102513 35.774515992047235 0 0 0
8119 54 1 3.5394522486778004 9.935024378346167 29.479270371053435 0 0 0
4097 30 1 17.404444443239928 18.38029044244512 23.634269408512367 0 0 0
8964 56 1 5.500083721248825 18.037584006161822 32.14296021460485 0 0 0
8742 59 1 8.343862078780129 16.23413700824016 30.107378748936753 0 0 0
2591 20 1 16.783266893656894 2.5328074557300138 17.256328665667002 0 0 0
1753 58 1 2.486618769191807 19.708016578759764 16.96122635261217 1 0 1
9254 45 1 2.223160002065983 20.986926122105814 22.18748340987546 0 0 0
9499 4 1 4.275623659738832 25.602785285218413 25.565412863253275 0 0 0
5170 60 1 2.3049340739231927 3.0892542406613 35.07985159446771 0 0 0
5171 60 1 3.742781911220349 3.429216201847515 35.578825631642175 0 0 0
9508 4 1 11.742997146020775 25.205309091340027 34.071466042442744 0 0 0
9261 45 1 7.904344568956014 21.632321354795344 28.996243114621965 0 0 0
9256 45 1 3.6413671318341905 20.920817022370212 24.143307941617152 0 0 0
1213 59 1 6.237285640180188 11.522836254069528 16.294176774323287 0 0 0
7435 49 1 7.7772745627630515 1.234425164037606 35.56190414253402 0 0 0
696 5 1 17.902402703946443 8.193923495348388 30.864075496986754 0 0 0
3936 46 1 16.814797212671454 16.057778296714147 17.74818416219392 0 0 0
8515 56 1 8.208413662168851 14.605055960832487 35.337761596841744 0 0 0
1994 14 1 17.610285111905636 23.009568154886402 35.91653678155695 0 0 0
8746 59 1 11.756587159379258 16.10152531827342 33.910830910981645 0 0 0
9507 4 1 10.431658983041897 25.701580407397604 33.45693653688943 0 0 0
8280 55 1 1.8780043655440877 11.94162642046151 22.56065752416741 1 0 0
603 4 1 1.285623200976947 5.323105924437358 16.435977054272996 0 0 0
8284 55 1 5.05130274980722 11.90603998001813 26.47720146816718 0 0 0
8741 59 1 7.682786340692987 17.190843652668192 29.09629591899666 0 0 0
8739 59 1 6.0667480975229005 17.10453377851424 27.24511105937166 0 0 0
8510 56 1 4.156760586735789 13.747042581645308 30.252711420453664 0 0 0
9260 45 1 6.746859147227781 20.9644461848788 28.208757901875877 0 0 0
1771 13 1 18.032702599443294 20.969968768372933 30.877755052690055 0 0 0
7431 49 1 4.406435835739281 1.0609584851870775 31.974483306756575 0 0 0
2582 16 1 11.419042599483607 1.0937558640036205 16.851710947622983 0 0 1
218 6 1 3.3332379684343136 1.0199433431386322 18.17830040562295 0 0 0
7753 52 1 7.652222857862151 5.769810863401712 35.788088494224866 0 0 0
7428 49 1 2.3883845099442573 0.8206448162858885 28.591565154629052 0 0 0
7429 49 1 2.7427929884582785 1.2267485015360606 30.043608939514424 0 0 0
7430 49 1 4.010373709676102 0.5824572578780303 30.547661701583564 0 0 0
8733 59 1 1.552276752164367 17.14528697449764 21.25220363254847 0 0 0
4543 32 1 17.633625628576304 23.65477326287138 24.596102066709186 0 0 0
8513 56 1 6.3896028415168775 14.446304505008348 33.60017338462309 0 0 0
8744 59 1 9.950315645043846 16.068173906716883 32.199931311404924 0 0 0
3480 23 1 12.953735682617658 10.227616425594174 18.895939132354826 0 0 1
8034 53 1 2.902068080975186 8.378265459373921 23.508206658741994 0 0 0
7655 51 1 2.7604972402715227 3.2799824215015208 24.823790525120167 0 0 0
7656 51 1 4.071110970812177 3.7834139785938894 25.453571292989636 0 0 0
7657 51 1 4.5436812248381155 3.0426522758927703 26.68904390310773 0 0 0
7658 51 1 5.850743270270315 3.636803331756188 27.278761421750232 0 0 0
7659 51 1 6.47813763525461 2.886059537582206 28.42331274311873 0 0 0
7660 51 1 7.360044269921881 3.8117874019065625 29.359122986555533 0 0 0
7661 51 1 8.194463494116594 3.022023086058642 30.404632065319035 0 0 0
7662 51 1 9.121816661444921 3.8109557534463785 31.297768930464795 0 0 0
7663 51 1 9.684328454728764 3.058302535227511 32.46781306549013 0 0 0
7664 51 1 10.721824889791254 3.8251623429411388 33.34918045122386 0 0 0
7665 51 1 11.287964713693809 2.997281072264806 34.45993848347382 0 0 0
1980 13 1 6.521384210900372 21.10283898479771 16.016557520586105 0 0 0
8961 56 1 3.43614444619365 19.03770050675157 28.9197574177479 0 0 0
5611 38 1 0.6333083458109393 7.677459514128491 31.834740711758712 0 0 0
4918 35 1 16.749700756331872 24.768286424309693 17.330575743914252 0 0 1
9504 4 1 8.649033653759178 25.367283714594436 30.075410068682128 0 0 0
6760 45 1 2.360527253875344 21.060895910475605 33.52066594510336 0 0 0
8514 56 1 7.2026608805641334 13.71190638266854 34.632363288793954 0 0 0
7653 51 1 1.2965530693853817 2.9402263303144776 22.76849717083997 0 0 0
777 6 1 16.78943842985936 10.350788050259565 34.98092231780814 0 0 0
3937 46 1 17.776364056143226 16.891329567928132 18.560923684955757 0 0 0
5615 38 1 3.662990038472933 7.8656417521332465 35.78607890694517 0 0 0
2150 48 1 18.24221581906714 25.561515035665625 31.017961626280588 0 0 0
8281 55 1 3.078712383764387 12.641142413683212 23.21596207171482 1 0 0
7750 52 1 5.596361585848158 4.966609745747105 32.63987445204195 0 0 0
7751 52 1 6.025886005431616 5.716770289019328 33.85384313819355 0 0 0
6372 12 1 2.7428174424837533 15.876960287882483 34.48033327521023 1 0 0
2360 48 1 7.313346155299626 26.044730812079006 17.215791985083108 0 0 0
9343 63 1 7.6644493942506795 22.92227960981261 34.15816296772718 0 0 0
8122 54 1 5.58772718504657 9.204745215728217 32.65743896053115 0 0 0
7432 49 1 5.646817090036018 0.438887802523606 32.436654701384384 0 0 0
4091 30 1 12.622207250568405 18.26926441904416 17.725389513200003 0 0 0
8037 53 1 4.905360926807616 7.356404768990857 26.592194825649536 0 0 0
8038 53 1 5.998725297632082 8.130857265323474 27.38839028827328 0 0 0
8039 53 1 6.770311115185556 7.401511240437714 28.47210643514189 0 0 0
8040 53 1 7.711434831008585 8.219777634675596 29.309942016624174 0 0 0
8041 53 1 8.148649155151448 7.355578338808529 30.498592032176575 0 0 0
8042 53 1 9.384538253081262 7.965788083720533 31.13569377250988 0 0 0