LAMMPS data file via write_data, version 23 Jun 2022, timestep = 11112117

8487 atoms
2 atom types
8471 bonds
3 bond types
8455 angles
3 angle types
8439 dihedrals
3 dihedral types

0 36.89775039 xlo xhi
0 26.67072 ylo yhi
38.94248232617409 197.80912207393038 zlo zhi
0 4.998290401096362 0 xy xz yz

Masses

1 14
2 15

Pair Coeffs # lj/cut/omp

1 0.0914 3.95
2 0.1947 3.75

Bond Coeffs # harmonic/omp

1 449.5 1.53
2 449.5 1.53
3 449.5 1.53

Angle Coeffs # harmonic/omp

1 62.0967 114
2 62.0967 114
3 62.0967 114

Dihedral Coeffs # opls/omp

1 1.411 -0.271 3.145 0
2 1.411 -0.271 3.145 0
3 1.411 -0.271 3.145 0

Atoms # molecular

1 19 1 8.758391185291735 1.893692858846521 45.9427328988757 0 0 0
2 19 1 9.768204922668545 1.191601829058056 46.945101025472894 0 0 0
3 19 1 10.950888849863432 1.9633651693428713 47.57929247373308 0 0 0
4 19 1 11.409579135135933 1.5022334329724276 48.871456929887714 0 0 0
5 19 1 12.764049990759673 2.009455643451652 49.13184419516935 0 0 0
6 19 1 13.440353970844884 1.3413133595086035 50.339222476324736 0 0 0
7 19 1 14.457095620960146 2.1953393298043204 51.12395090136578 0 0 0
7824 60 1 0.39354210373382287 21.022988793529386 42.01543388365318 1 0 0
1063 10 1 9.829873080859672 13.027296185806982 41.73054978826823 0 0 0
2891 13 1 18.130910831595827 14.574157862275172 45.77747558507581 0 0 0
4355 39 1 2.687040904989248 7.743335801327242 53.5137547187276 1 0 0
7825 60 1 1.3507575566298677 21.952175317162574 42.662175237402636 1 0 0
33 19 1 4.865636522481037 1.029693162023748 41.289883237385425 0 0 0
1829 35 1 12.339028456634164 25.9834077177852 44.71520925681881 0 0 0
9 19 1 15.863283143472309 1.6590882023237503 53.20204273568764 0 0 0
2136 24 1 17.72126936761216 3.4359715910038457 39.797238728358224 0 0 1
6309 63 1 10.272364219938607 3.9680195671949967 51.448994026643206 0 0 0
4354 39 1 1.888146527696955 8.658213862686361 52.496798394630936 1 0 0
1918 14 1 12.056507573929178 2.301166236298017 39.59575634797149 0 0 1
34 19 1 5.56220664468219 1.9635850883812342 42.12870915373257 0 0 0
35 19 1 6.260212036137407 1.1672498325209308 43.292362200863884 0 0 0
36 19 1 7.167109659794668 1.9228929983233045 44.15351392966786 0 0 0
37 19 1 7.948566733387947 1.014302838568298 45.04769130104372 0 0 0
75 4 1 11.291916310356225 4.2880172596546595 44.34576258042992 0 0 0
76 4 1 12.484664676127997 3.465045934658237 44.75769360753503 0 0 0
77 4 1 13.2726653758645 4.358822740166662 45.65464785826939 0 0 0
78 4 1 14.30223899206006 3.3877361875814076 46.42122438599476 0 0 0
79 4 1 14.967477397582512 4.225841174231928 47.488465466020685 0 0 0
3213 11 1 16.4410164118413 22.057605092626137 39.18389607739106 0 0 1
8055 62 1 2.104769606353666 23.86692012003332 48.47232247670101 0 0 0
6524 54 1 3.7430115478147292 5.600349915018478 49.472479480708444 1 0 0
7526 34 1 3.2037402411405886 17.624784537007752 44.08034579960111 0 0 0
1708 19 1 3.708317575656303 23.80499208787355 40.33810710909239 0 0 0
6311 63 1 11.476321886053427 4.013832493140481 53.51725870519664 0 0 0
1799 35 1 18.460747972740116 26.357851442286613 50.69122909036858 0 0 0
1466 18 1 18.58045532548064 21.750296566226872 51.14390146170024 0 0 0
2887 44 1 17.647068075899835 12.140673432388699 39.94785437749434 0 0 1
6076 9 1 1.0339000708621953 1.4810174852237927 46.44436490695231 1 0 0
296 4 1 8.857973980387706 3.5715394354019065 41.55145416788564 0 0 0
297 4 1 10.033039006744039 4.406629686666036 42.0661264116761 0 0 0
298 4 1 10.605423275566263 3.638073505228291 43.20614095975594 0 0 0
299 7 1 10.097918267975466 5.783809928407665 47.01405491538017 0 0 0
300 7 1 11.144838270267966 6.516587727022835 47.86513524926987 0 0 0
301 7 1 12.047656439804571 5.73744753237374 48.836516597198646 0 0 0
302 7 1 13.078334644098643 6.590662760181266 49.54172750051451 0 0 0
303 7 1 13.507103609969038 6.00591511239066 50.87613238341867 0 0 0
304 7 1 14.87167145523109 6.576266441062181 51.19280632817366 0 0 0
305 7 1 15.354521468862682 6.016232311871816 52.47623848022893 0 0 0
2137 24 1 18.19424204054602 4.135834226015428 41.00790311677307 0 0 1
2443 27 1 16.971020538589087 10.093495869845993 43.72498058208569 0 0 0
1828 35 1 11.473874639789868 0.011516389997282793 43.808702892720774 0 1 0
6784 23 1 7.679666277945926 8.231055471098152 48.47421940436371 0 0 0
2890 13 1 17.254886631140216 15.392021516239044 44.78142880789431 0 0 0
3124 60 1 15.478147970000839 19.77307033381724 43.20328211229283 0 0 1
1880 4 1 13.759996065203097 2.167638250740507 41.48870572422582 0 0 0
7045 54 1 1.270118847277416 12.856106050547616 42.107316337690186 0 0 0
3440 35 1 18.138543522751547 26.23184706836278 40.77315488414817 0 0 0
6835 56 1 7.025428810332158 10.748816140203994 54.22089006634249 0 0 0
517 7 1 4.7726842700857 5.675899222393607 41.37934755683439 0 0 0
518 7 1 5.57461276348214 6.48295552304051 42.3480628616741 0 0 0
519 7 1 6.302981126462092 5.726057452170179 43.501859033214004 0 0 0
520 7 1 7.288540538226465 6.635822477278323 44.26414117383964 0 0 0
521 7 1 8.13511976171895 5.728240007434196 45.21042946350808 0 0 0
522 7 1 9.250039793863948 6.487296952570605 45.979534636968594 0 0 0
82 4 1 17.92940899434942 3.3401339304468625 50.10979667934934 0 0 0
2663 27 1 12.802070516498393 10.013424811693074 40.84904941260904 0 0 0
848 10 1 17.687327758668125 12.394500563122206 49.712365595178994 0 0 0
4353 39 1 0.858594737472475 7.920579674414244 51.68497226840374 1 0 0
8276 63 1 1.4328798841633947 26.290257358260458 42.62531661610974 0 0 0
3219 43 1 16.50045762939648 23.559096020696526 44.083439145900364 0 0 0
2974 28 1 11.965819055923882 15.366007837666812 39.481761119619364 0 0 1
10 19 1 16.887213476741024 0.7516621223602953 53.86969213954038 0 0 0
2365 56 1 14.61262786995187 5.698203988072767 42.48801370626077 0 0 0
7047 54 1 2.7864308659340025 13.370116222407798 44.07802932174084 0 0 0
7050 54 1 5.368194610068795 12.365613581987681 46.925731642348445 0 0 0
6078 9 1 2.3254497919097035 1.831689472081019 48.457618787588004 0 0 0
7835 60 1 10.2228682299133 21.66067396096721 51.27456724972524 0 0 0
7261 59 1 1.8381757350477752 14.886073997182097 47.214225477498864 1 0 0
616 16 1 14.593718745496087 7.946257609757127 46.30487230330429 0 0 0
617 16 1 15.51252422127542 8.833099240409464 47.14519398643006 0 0 0
618 16 1 16.559960459525787 8.064395493400662 47.968913573587685 0 0 0
619 16 1 17.189367728130406 8.794208899124563 49.114058834199625 0 0 0
620 9 1 13.634932503802306 10.511093612383378 50.042733047763555 0 0 0
621 9 1 14.248977391727026 11.270936183989095 51.14348754659169 0 0 0
622 9 1 15.307228508162972 10.362310748886838 51.80519940302436 0 0 0
623 9 1 16.062003095886872 11.137994514616166 52.741668214708355 0 0 0
7044 54 1 0.10832958692589492 12.074358483279722 41.57364525412224 0 0 0
2435 64 1 16.30559648355648 8.721754741526002 39.411824192099175 0 0 1
7523 34 1 0.744036869198682 16.95633433375673 41.287827500985635 0 0 0
7260 52 1 0.5661357821400309 15.468023537166946 46.72268022139748 1 0 1
1677 18 1 7.325060896080757 21.406954317603585 39.19826110337847 0 0 0
32 19 1 4.107900074047305 1.8396555360585758 40.272643796412794 0 0 0
1462 18 1 15.201181471988262 22.042476468327706 47.277744179817574 0 0 0
3087 31 1 18.607026135888425 19.002066376338455 45.532848409134324 0 0 0
1919 14 1 12.8909843020517 1.3638664565161567 40.463350242247074 0 0 1
1465 18 1 17.748472773945075 21.02583058406309 50.03590553088089 0 0 0
2366 56 1 15.56625421078884 6.45157138245249 43.38873110836428 0 0 0
1683 19 1 14.372685448292696 23.956286682306796 51.144388041058974 0 0 0
8060 62 1 6.996144008404232 23.18273322689517 52.75696383709939 0 0 0
838 9 1 8.416073905091551 10.185304739993828 45.051131498048605 0 0 0
839 9 1 9.42361469010835 10.995921570669594 45.62968415674397 0 0 0
840 9 1 9.882238706135336 10.438328688571024 46.91328517075802 0 0 0
841 9 1 11.003101521348123 11.322478170559886 47.43727879621441 0 0 0
842 9 1 12.00115093457475 10.541659544227583 48.3007647731592 0 0 0
843 9 1 12.649577403868992 11.45495965685604 49.308355000625966 0 0 0
844 10 1 14.091642358566801 12.23382618768744 45.988760559326046 0 0 0
845 10 1 15.303667590650862 12.91409363760671 46.700754002931845 0 0 0
846 10 1 15.880970228133537 12.309890088337953 47.99667225587066 0 0 0
847 10 1 17.011260885089367 13.177239188111958 48.555848246094044 0 0 0
515 20 1 3.01779620967247 5.45927781647555 39.522987196179116 0 0 1
2888 44 1 18.258192624720298 12.655609895356177 41.28443536687269 0 0 1
7611 59 1 4.351986022997837 19.639842891509847 49.83398306864543 0 0 0
6831 56 1 4.053553144291701 10.785561327868763 50.15113110679741 0 0 0
3049 30 1 17.479564585588875 16.879872346774004 40.1794141217882 0 0 1
560 16 1 17.833130263992025 7.7709566480653045 50.04631371423207 0 0 0
7049 54 1 4.481287967839312 13.288287994241871 46.01994111355585 0 0 0
5549 46 1 3.0573654899533187 21.228687736460575 53.06789860530965 0 0 0
6308 63 1 9.020808911807968 3.486131158347722 50.908491492022996 0 0 0
2886 44 1 16.59848170321269 13.019632712392948 39.328667898258146 0 0 1
1064 10 1 10.731291227999819 12.320368782971713 42.7643058530342 0 0 0
1065 10 1 11.807030018020134 13.31538015532634 43.28371318584519 0 0 0
1066 10 1 12.40322869095633 12.582284518666434 44.499747378169666 0 0 0
1067 10 1 13.39864319587134 13.379943596734002 45.28427027930559 0 0 0
1068 7 1 9.160411802127474 15.209769280404114 45.39506125594623 0 0 0
1069 7 1 9.473934305788182 14.83863764755467 46.77967786122961 0 0 0
1070 7 1 10.551564095070772 15.593172883732372 47.41628596602769 0 0 0
1071 7 1 11.198480853646933 15.12905449274506 48.66153604214438 0 0 0
1072 7 1 12.70851963460471 15.308084000005755 48.975625786589106 0 0 0
1073 7 1 13.14400702722808 14.708115667291757 50.30139182082152 0 0 0
1074 7 1 14.296785863882317 15.505214244944398 50.830745834394435 0 0 0
1075 7 1 15.15336185347725 14.762751472994927 51.84280419555779 0 0 0
3217 43 1 14.6080449466169 23.84880491870277 42.30683089656923 0 0 0
1060 12 1 7.133600584985035 12.05848662248312 39.23614479645189 0 0 1
3439 43 1 13.089256145533241 23.6495325378278 40.354976797102296 0 0 0
833 8 1 3.7170158371250412 10.495499198828925 40.853481313821476 0 0 1
2367 56 1 16.571468617344433 5.5316385885146175 44.00995694340858 0 0 0
6789 23 1 11.348476509497916 8.74677312775212 53.62253006520824 0 0 0
7834 60 1 9.60461492341714 20.88165870962099 50.229465594342415 0 0 0
6310 63 1 10.72878090642746 3.094188786832628 52.62536953012205 0 0 0
6788 23 1 10.832818874563221 8.189787913754053 52.25803701699205 0 0 0
2926 13 1 16.57414988347737 14.642970852114795 43.65983922707989 0 0 0
1100 7 1 4.752540300017836 14.164132503239724 41.363820786208045 0 0 0
1101 7 1 5.693314345395948 15.306375730471531 41.705899641979485 0 0 0
1102 7 1 6.263898483353679 14.743128906041953 42.98179337046665 0 0 0
1103 7 1 7.647576172031979 15.012599635306279 43.367907890654315 0 0 0
1104 7 1 8.099651697793787 14.562067901027284 44.693143684669266 0 0 0
1193 13 1 11.460875072921228 17.38562736805986 43.37793511843709 0 0 0
1194 13 1 12.321312791498146 16.621935673458374 44.33845373045283 0 0 0
1195 13 1 13.139250622585326 17.572167197628474 45.1560727945039 0 0 0
1196 13 1 13.866042120922582 16.761113583026734 46.299112067555896 0 0 0
1197 13 1 14.87822820103855 17.583890489601814 47.13708902701612 0 0 0
1198 13 1 15.810641092582387 16.858842211166653 48.02312193338614 0 0 0
3438 43 1 12.111073323272953 24.47273294537243 39.51760111154901 0 0 0
8059 62 1 5.7553499770711625 23.82592520802392 52.122672613313554 0 0 0
3218 43 1 15.23581833364557 24.35681054541582 43.56945671104264 0 0 0
7265 59 1 5.293397437015057 14.932327195479381 50.85474276528931 1 0 0
3220 43 1 17.05913454023124 24.133306652420714 45.253757291220985 0 0 0
1061 12 1 7.969411731363291 12.996991395510447 40.07995745667968 0 0 1
6834 56 1 6.643633914709216 10.10002379044004 52.96235339994202 0 0 0
3120 60 1 12.2448493878427 20.010251977338957 39.2507229420393 0 0 1
1451 16 1 3.0940377055657806 18.782484072511597 39.604789884340605 0 0 0
7268 59 1 7.8712806807672795 15.75080777059903 53.78030108413876 1 0 0
1228 13 1 9.966184844828424 17.430833615723795 41.31754041790277 0 0 0
1229 13 1 10.437497460063037 16.652481116494553 42.49098561493645 0 0 0
1230 16 1 5.6728085192186075 19.687226695271722 42.322338393824346 0 0 0
1231 16 1 6.992800289859658 19.063843998534686 42.81153510174168 0 0 0
1232 16 1 7.583122717814619 19.74837573941016 43.96767627618768 0 0 0
1233 16 1 8.66052353576095 18.96020797120321 44.750561910640826 0 0 0
1234 16 1 9.3543525006842 19.818379471614048 45.68598012562455 0 0 0
1235 16 1 10.274654309605248 18.961348166643262 46.47019995212751 0 0 0
1236 16 1 11.266081161813727 19.753254694336583 47.25995295230757 0 0 0
1237 16 1 11.694765154094156 18.823640838228012 48.43652883157891 0 0 0
1238 16 1 12.927338082824454 19.358353965155175 49.061838705664954 0 0 0
1239 16 1 13.319340991359766 18.82570385610467 50.443797244341866 0 0 0
5548 46 1 1.9045137287784328 21.95096164439071 52.47895227723202 0 0 0
3904 2 1 0.40391384432605054 4.117290418563504 50.98753102801467 1 0 0
7048 54 1 3.5305413502727117 12.54412043351111 45.09692476966755 0 0 0
1832 4 1 17.317905885392033 1.7587761475862653 44.99189691306364 0 0 0
516 7 1 3.7971993789105043 6.359139508869019 40.443322992404404 0 0 0
8280 63 1 4.75426844105237 26.126591005800954 46.43555990567451 0 0 0
7532 34 1 8.324448237739515 17.54749578110517 49.606342530669004 0 0 0
7053 54 1 7.834100279273663 13.124152635183314 49.43940742300198 0 0 0
7607 59 1 0.47463400300146064 19.729982878047977 46.68843932534998 0 0 0
6298 63 1 0.9185489175831723 3.303638422381687 41.51973191657147 0 0 0
294 4 1 7.247217504085536 3.598444302000364 39.77355141026822 0 0 0
2662 30 1 12.158466591578545 10.832787205911362 39.775125156591876 0 0 1
1453 16 1 5.101552306448061 18.84172109088929 41.222485358392596 0 0 0
1454 18 1 8.438449643098162 22.221447531953007 40.05263112416662 0 0 0
1455 18 1 9.193729757837442 21.16906229164937 40.95813224529873 0 0 0
1456 18 1 10.367975682680346 21.77957918539603 41.72823732905436 0 0 0
1457 18 1 11.005144623682856 20.953685062555277 42.77304072915751 0 0 0
1458 18 1 11.664109363745215 21.93207180349043 43.663089282146494 0 0 0
1459 18 1 12.699808484922146 21.29777080483832 44.5167903844624 0 0 0
1460 18 1 13.303463668680674 22.10872625663128 45.596983541033765 0 0 0
7534 34 1 9.95992235396794 17.639736928007775 51.492411038989815 0 0 0
4356 39 1 3.590310932520179 8.48579231988714 54.37956471702214 1 0 0
8282 63 1 6.453705740439059 26.30200016816779 48.132885202606275 0 0 0
5547 46 1 1.1903702810485515 21.057383948068864 51.48157313025838 1 0 0
849 10 1 18.50044077498828 13.349017770323064 50.525680484278475 0 0 0
7616 59 1 8.361208154505961 19.01565996872904 54.68773414238424 0 0 0
8275 63 1 0.6503838380224286 25.33163803655659 41.70148204091538 0 0 0
8054 62 1 1.3184908278749123 23.01616611630663 47.5086423921602 1 0 0
2925 13 1 15.387089026421876 15.446197610869085 43.078487941422466 0 0 0
2363 25 1 13.150300386342442 5.576261227724649 40.405679783855376 0 0 1
8278 63 1 3.2485705506004288 26.19108769336782 44.35523122177611 0 0 0
1678 19 1 10.117398735938515 23.296130043134887 46.53426526382738 0 0 0
1679 19 1 10.637627710235662 24.159828734081362 47.69494671595936 0 0 0
1680 19 1 11.814355997772115 23.380844369989312 48.39111608501782 0 0 0
1681 19 1 12.71387936664193 24.243188473100904 49.23863848068857 0 0 0
1682 19 1 13.623290132551617 23.38297422022625 50.055859945049285 0 0 0
3216 43 1 13.503625448838584 24.548242213901755 41.5856887516352 0 0 0
7613 59 1 5.92741420616585 19.8233305864364 51.794552638887374 0 0 0
557 50 1 10.850233939104927 7.641240033203461 42.99539678059105 0 0 1
4801 42 1 0.6921098920272365 12.605079523201681 51.52077828687485 1 0 0
554 50 1 8.142802342257694 8.566580196642073 40.26441969030614 0 0 1
7052 54 1 7.348124029283958 12.209877763528915 48.393359329187575 0 0 0
1241 16 1 14.88328899650741 18.90664313734581 52.31549376801015 0 0 0
7610 59 1 3.5336298296180537 18.859878469821584 48.86888819197851 0 0 0
1792 21 1 7.958944324786424 26.64844671841045 40.23566306461383 0 0 1
615 16 1 13.395204617493844 8.651729574298729 45.65660065525054 0 0 0
1243 16 1 16.71389036828458 18.605941155485624 54.01541714570578 0 0 0
6312 63 1 12.403116155434569 3.146919512419197 54.32305435225126 0 0 0
1709 19 1 4.756334870600424 23.041487424712614 41.134997141026844 0 0 0
1710 19 1 5.516137520685954 24.054814420296193 41.983009408369874 0 0 0
1711 19 1 6.472044469694784 23.115038374985474 42.81466367663486 0 0 0
1712 19 1 7.251825302037524 23.91160888748966 43.825187244437686 0 0 0
1713 19 1 8.334741704548536 23.161339508572404 44.63024604789565 0 0 0
1714 19 1 8.953504288500401 23.93423574220361 45.75562807799146 0 0 0
1794 35 1 13.925697735019929 25.925293433573223 46.39873200429948 0 0 0
1795 35 1 14.87563404892528 0.1211980442277751 47.19862241433046 0 1 0
1796 35 1 15.922742636513105 25.8989578517201 47.88861471472797 0 0 0
1797 35 1 16.5755950712192 0.07988627013965285 48.93012608367836 0 1 0
5858 29 1 4.03426424177462 26.045756527697932 53.98699401601196 1 0 0
3050 30 1 18.442503604279842 17.73615177484109 40.989112461780465 0 0 1
555 50 1 9.10259142009961 7.783672361470454 41.08856578633554 0 0 1
2437 64 1 18.174824029718142 8.530018556120849 41.11118086861063 0 0 1
5247 43 1 2.5364991148911757 17.121921649274235 53.37248945307536 1 0 0
8061 62 1 7.477828903633275 24.008205059593084 53.91225292910356 0 0 0
6829 56 1 2.127420794484835 10.697667160724007 48.35596046970864 0 0 0
8281 63 1 5.9063625001676465 25.38077751948527 47.041466222359055 0 0 0
1076 7 1 16.124366218180626 15.375907228797887 52.82134627898635 0 0 0
1240 16 1 14.570231172367357 19.49024911713912 50.9866788193339 0 0 0
837 9 1 7.513927741704042 10.893987106220203 44.15768164124287 0 0 0
7058 54 1 12.422244759216884 12.354258569109819 54.023990142353476 0 0 0
5248 43 1 3.575774924056483 17.88826362161833 54.10338293653731 1 0 0
1830 35 1 13.146887278240701 0.24284414811903582 45.510360643917444 0 1 0
81 4 1 16.879368913824354 4.1278563331364735 49.33583777221571 0 0 0
7826 60 1 2.4370268546680336 21.11087917127893 43.326050198655565 1 0 0
1227 13 1 8.83363879520325 16.668966785743393 40.64321611279394 0 0 0
7615 59 1 7.721481653646887 19.877163702027833 53.56835087484011 0 0 0
6781 23 1 4.89775431630226 8.82366950731571 46.0373123249529 0 0 0
1463 18 1 16.47659063284402 21.358117222256812 47.840349458344456 0 0 0
7051 54 1 6.420739089567801 13.147483652651673 47.70209142438037 0 0 0
2445 27 1 18.52158905158024 9.976262342335676 45.780641253488824 0 0 0
4803 42 1 2.626128945134936 12.573309180066136 53.013805628882515 1 0 0
2976 28 1 13.840135215251728 15.468329121577481 41.056817289459445 0 0 1
836 8 1 6.588523421256682 10.088884851449903 43.38507229546855 0 0 1
1098 7 1 2.9988236303458207 14.166489263152695 39.500426275468314 0 0 0
1831 4 1 16.743599220331255 1.0144759562937393 43.803223683643665 0 0 0
7262 59 1 2.2340171009974767 15.611308338439262 48.42629460728521 1 0 0
1062 12 1 8.58446330263969 12.214992076377486 41.259559527829865 0 0 1
1078 7 1 17.92366826833907 15.424157212694544 54.54511128964867 0 0 0
2145 56 1 18.598694561631284 5.723145935609033 45.8677810026167 0 0 0
6077 9 1 1.5355139919678258 0.7552635853071399 47.71596928293482 0 0 0
7527 34 1 4.3228657226633445 16.850960963941866 44.714520083785324 0 0 0
6525 54 1 4.907275345830531 6.393062098152765 50.04476339661027 0 0 0
295 4 1 8.333022844451543 4.4648336146182 40.37537110283264 0 0 0
1793 21 1 8.73949879984125 25.72647321349104 41.2785844435315 0 0 1
83 4 1 18.76195163847336 4.234083330928801 50.951166805654 0 0 0
4804 42 1 3.5268346796080143 13.44940269607595 53.8792589920602 1 0 0
6833 56 1 5.5710362534539914 10.931757395167722 52.15246354000177 0 0 0
6783 23 1 6.729372781630589 8.969706575296193 47.588321934527315 0 0 0
1199 13 1 16.726239364753017 17.724731529060453 48.92132517232527 0 0 0
7525 34 1 2.3685486989363276 16.81880656682291 43.05998714141275 0 0 0
2442 27 1 15.747147392853616 10.838220389399412 43.29477972220812 0 0 0
1464 18 1 16.930650189549798 21.997384575077476 49.18297253363525 0 0 0
31 19 1 3.0848404587460037 0.998041851477106 39.47763347664943 0 0 0
6785 23 1 7.9386084004925115 8.899600867986697 49.82987583553019 0 0 0
1201 13 1 18.713312771421066 17.538517720578472 50.58809664816422 0 0 0
7608 59 1 1.4604001532578808 18.69939175502908 47.41273254650816 0 0 0
1751 20 1 2.8898954703480717 23.06929033762948 39.285624481107 0 0 1
8289 63 1 12.783665282556745 25.105842989324124 54.17009696611037 0 0 0
2664 27 1 13.944488182434423 10.803924425404038 41.45862569420507 0 0 0
2665 27 1 14.858724466327896 9.988457663653339 42.348613754545994 0 0 0
2364 25 1 13.953381203639497 6.42232133826534 41.34220414023754 0 0 1
6776 23 1 0.47700014544954566 7.737796539459221 41.43767956033282 0 0 0
7531 34 1 7.319689174416973 16.855309731378817 48.56536618366271 0 0 0
7537 34 1 12.577123337343611 16.646434434727766 54.19816316989936 0 0 0
1798 35 1 17.733368170262317 25.900052836565834 49.43865216873484 0 0 0
835 8 1 5.359483615186885 10.760502804572443 42.77662090499158 0 0 1
7533 34 1 9.159072970858517 16.75950006533692 50.6393431117965 0 0 0
3215 11 1 18.241301814872795 22.002721230137663 41.22061655552844 0 0 1
307 7 1 17.46824886249809 6.0627675513544625 54.09197905503627 0 0 0
1226 13 1 8.013948340062171 17.579121867796715 39.82615065998113 0 0 0
3121 60 1 13.171876904353859 19.208773748636567 40.154665597187446 0 0 1
2924 13 1 14.811045619285817 14.63516184676645 41.9241207283719 0 0 0
7046 54 1 1.8943118727351804 12.368219010942784 43.41895139784416 0 0 0
1077 7 1 17.037922728503894 14.550671149223572 53.74671142132352 0 0 0
6828 56 1 1.379790729476838 9.964946031434803 47.344126421545795 0 0 0
3085 31 1 16.55705389025701 18.81124427166172 43.87539640514679 0 0 0
306 7 1 16.344931400677666 6.856254069784327 53.36897237749628 0 0 0
7828 60 1 4.342532640064539 21.119452814294284 44.9592877222176 0 0 0
1684 19 1 15.160785767588514 23.0844487228483 52.16149558476381 0 0 0
1200 13 1 17.679853135266363 16.82880207505065 49.848288375212384 0 0 0
7535 34 1 10.79073736846351 16.7458614670786 52.35854549738043 0 0 0
6782 23 1 5.732241595710439 7.984126452231918 46.97288617482702 0 0 0
7609 59 1 2.3567827229261464 19.573419813132713 48.182335973842726 0 0 0
6832 56 1 4.882159789017851 9.997214966760296 51.089017633061985 0 0 0
7264 59 1 4.064845694391613 15.62902500273179 50.20720063188489 1 0 0
5550 46 1 3.7746695411577758 21.984704371908297 54.15916148513567 0 0 0
7838 60 1 12.860426534775629 20.87545884643507 53.81781362155212 0 0 0
7056 54 1 10.589366014217964 12.229789958715845 52.225926720311946 0 0 0
6779 23 1 3.1044106512994287 8.822086312414935 44.17108096708039 0 0 0
7055 54 1 9.795075922335961 13.094282023387047 51.2789518381971 0 0 0
7837 60 1 11.804592296381125 21.623097543724114 53.02442769665652 0 0 0
4802 42 1 2.040025272017502 13.24465694575016 51.804520188035 1 0 0
7267 59 1 6.8027951931481585 14.961205056228598 52.98670416211019 1 0 0
561 16 1 18.71180793710036 8.791605825641804 50.6939978227933 0 0 0
7057 54 1 11.373260412045818 13.114101989200023 53.207001243127316 0 0 0
6780 23 1 3.803652786250861 8.005085925314555 45.25093495037254 0 0 0
3123 60 1 14.859280948486703 19.09514296723553 41.97341726381927 0 0 1
1452 16 1 3.9082317065190884 19.638897409460046 40.55828104585271 0 0 0
8 19 1 15.096434249643357 1.0894856916804398 52.04411250731793 0 0 0
6777 23 1 0.9287539530409961 8.498177664001275 42.62607696898383 0 0 0
7524 34 1 1.2480333994304502 17.694140876220057 42.44362639074461 0 0 0
6522 54 1 1.889337555570501 5.5204717798834295 47.87423263150657 1 0 0
8058 62 1 5.170186878125543 23.37351354016986 50.76366431730851 0 0 0
2436 64 1 17.427049017963192 7.872061184020481 39.97185018857615 0 0 1
2135 24 1 16.4718466456223 4.168968456449503 39.33215076071941 0 0 1
8057 62 1 3.71683316417231 23.806591751011183 50.374666564875795 0 0 0
8279 63 1 3.8936296652220403 25.313240171420947 45.39037073766643 0 0 0
3905 2 1 1.0246518532316764 3.3825930012042975 52.13793274065524 1 0 0
556 50 1 9.806701616286082 8.473708285751787 42.326349770658084 0 0 1
3663 35 1 16.991625183097668 25.638471095292346 39.96438617212188 0 0 0
8285 63 1 9.138501593989632 25.221101959736018 50.76908116481329 0 0 0
6081 9 1 4.870747501621525 1.045000921471279 51.26314237263065 0 0 0
7530 34 1 6.722254125000998 17.714272992519682 47.501132375947975 0 0 0
559 50 1 12.500780403307122 7.757481381490541 44.84113752572119 0 0 1
8288 63 1 11.696992429782135 25.884748278190937 53.418144711913314 0 0 0
6778 23 1 2.2977939773528666 8.004121978769657 43.236505090480435 0 0 0
8287 63 1 10.675442630551652 25.19387379699654 52.54169380693479 0 0 0
5246 43 1 1.9121108614625864 17.746830210705834 52.21206380097163 1 0 0
7833 60 1 8.52333158575409 21.655725765464855 49.52970705586489 0 0 0
6523 54 1 3.041048321459119 6.4403712542043445 48.46689323220599 1 0 0
8284 63 1 8.159345134340127 26.030139091302146 49.89930870921248 0 0 0
3086 31 1 17.4287940523488 19.641051706229963 44.8983560078371 0 0 0
6827 56 1 0.5051228466310348 10.689828703964437 46.43755380671747 0 0 0
6083 9 1 6.81621823682919 1.1211354933508193 52.91784053273253 0 0 0
7614 59 1 6.744194585097574 19.056587281402305 52.777500667399366 0 0 0
558 50 1 11.656647431976205 8.553090680676581 43.841273326827704 0 0 1
7266 59 1 5.7113601077275415 15.592714412343549 52.204773763414266 1 0 0
7529 34 1 5.955709151779908 16.77984644117074 46.65789006517873 0 0 0
7612 59 1 5.3964236806923545 18.977139476097072 50.66009788701571 0 0 0
80 4 1 16.139540549129165 3.446755428426023 48.19199959482853 0 0 0
2444 27 1 17.57134916346498 10.751554055104044 44.89693812477357 0 0 0
1826 35 1 9.921992860829125 26.477188525467284 41.79812887428885 0 0 0
1881 4 1 14.91951202580575 1.3863923782351315 42.1671472560134 0 0 0
7832 60 1 7.812902605301797 20.892033021488906 48.46481420565757 0 0 0
7836 60 1 10.930110617932405 20.673879498347844 52.19367347086305 0 0 0
8283 63 1 7.382277106161025 25.336053024762258 48.89022753642239 0 0 0
624 9 1 16.781392709633128 10.210727929917137 53.753339296917204 0 0 0
1686 19 1 16.94242039528572 23.19923185171235 53.853829667873576 0 0 0
6079 9 1 3.119567492188607 1.1740782306811568 49.57915565812605 0 0 0
6080 9 1 4.0876753304644335 2.025223284717747 50.419590431298836 0 0 0
7536 34 1 11.66010311385565 17.56869164831737 53.34042575804207 0 0 0
6529 54 1 7.778133870696191 6.558172276800895 54.00184705184339 0 0 0
1791 21 1 6.999325139660028 25.777422683358715 39.32153239530463 0 0 1
6787 23 1 9.565613035424095 8.7577867860539 51.857708530447255 0 0 0
3214 11 1 17.47492052667464 21.262021990942692 40.03085378879044 0 0 1
1827 35 1 10.614805133878242 25.770583083132603 42.913904151673854 0 0 0
6786 23 1 9.104682290816523 8.293842312485022 50.421566044203175 0 0 0
6082 9 1 5.816043565623754 1.862295120160199 52.13694187005766 0 0 0
3907 2 1 2.8293470442037774 3.5423044706703415 53.85065469862079 1 0 0
6830 56 1 3.150642219503985 9.91156107188857 49.2434862556418 0 0 0
1242 16 1 16.083910666125867 19.474291505701686 52.87415131020205 0 0 0
6299 63 1 1.7553078282839847 4.269514136109891 42.32919941012068 0 0 0
6300 63 1 2.735222977527672 3.502721372614098 43.27069662037962 0 0 0
6301 63 1 3.0373470960600355 4.206816259488449 44.56909467141354 0 0 0
6302 63 1 4.287812660396276 3.5934654350740365 45.2076399432196 0 0 0
6303 63 1 4.62825815946476 4.068155392877584 46.59081158578132 0 0 0
6304 63 1 5.4588676360845945 3.1832769463273634 47.4770667844173 0 0 0
6305 63 1 6.704267524184258 3.9199082232161886 47.855352969407974 0 0 0
6306 63 1 7.4177760884573205 3.4360563709680028 49.09268166587839 0 0 0
6307 63 1 8.32831330653149 4.38794291377581 49.869292977970844 0 0 0
7263 59 1 3.607163277523288 15.168476658325643 48.89333809504487 1 0 0
834 8 1 4.940224237362632 9.930709743217193 41.56844080725757 0 0 1
5856 29 1 1.8793879680527348 26.46133233016643 52.51466018907356 1 0 0
832 8 1 3.3181893202387425 9.813173674590965 39.614724686216945 1 0 1
7829 60 1 4.885384377704441 21.932946813382863 46.17428008610346 0 0 0
7831 60 1 6.706124876337019 21.82202701515062 48.03879197966741 0 0 0
7054 54 1 8.668572635501766 12.40846551167165 50.543181462677346 0 0 0
8056 62 1 3.45325457495407 23.31165299674132 48.969551569809695 0 0 0
1685 19 1 15.956579325040707 24.004247258195424 53.04370622617964 0 0 0
6526 54 1 4.9302353768113765 6.008457274376043 51.51118957725911 0 0 0
6527 54 1 6.144597165404587 6.776652111346555 52.04901242985073 0 0 0
6084 9 1 7.73808400339558 1.9703273170812967 53.79192007206897 0 0 0
1099 7 1 3.9832485904842887 14.875405149503809 40.35078957455068 0 0 0
7827 60 1 3.3856058042924295 21.96131969454771 44.14532877162862 0 0 0
3122 60 1 13.894511986657063 19.966741490802068 41.24269312206108 0 0 1
1461 18 1 14.53999677501601 21.355579136807197 46.08803239836347 0 0 0
1882 4 1 15.611023187103159 1.8784050293792602 43.43434433624535 0 0 0
7528 34 1 4.946517641678409 17.47980736913452 45.88582743388734 0 0 0
6528 54 1 6.970910808774382 5.816114663791461 52.91932917714984 0 0 0
8286 63 1 9.94354747181213 26.13619369102717 51.56536220739666 0 0 0
7830 60 1 5.9208638312107436 21.145380590259396 46.917527444815306 0 0 0
3906 2 1 1.9220049491518765 4.278519182657082 53.004040657724445 1 0 0
8277 63 1 2.1360835477891276 25.444835806744976 43.66936214999582 0 0 0
2975 28 1 13.032752038619995 14.588878259186018 40.26642245883904 0 0 1
5857 29 1 2.9061790870670996 25.556716401419376 53.11630270298351 1 0 0
2144 56 1 17.268804669489118 6.2303015683471346 45.191544134276484 0 0 0
1833 4 1 18.545200016729115 1.0979292246513366 45.64394245650184 0 0 0
2362 25 1 12.33956761761096 6.458117206348705 39.57845904013094 0 0 1
5245 43 1 0.7230773389655778 16.86747352774757 51.686836430397584 1 0 0
6790 23 1 12.468075384918555 7.976286731402392 54.296502326432616 0 0 0
3221 43 1 18.16039170730213 23.326409802054357 45.775917136147726 0 0 0