LAMMPS data file via write_data, version 29 Oct 2020, timestep = 32000000

10752 atoms
2 atom types
10752 bonds
3 bond types
10752 angles
3 angle types
10752 dihedrals
3 dihedral types

-1.4019591925125496e-01 3.1008115919238300e+01 xlo xhi
-1.2113307625790526e-01 2.6791853076229280e+01 ylo yhi
 4.9809532597687962e+00 2.7801840673942490e+02 zlo zhi

Masses

1 14
2 15

Pair Coeffs # lj/cut/omp

1 0.0914 3.95
2 0.1947 3.75

Bond Coeffs # harmonic/omp

1 449.5 1.53
2 449.5 1.53
3 449.5 1.53

Angle Coeffs # harmonic/omp

1 62.0967 114
2 62.0967 114
3 62.0967 114

Dihedral Coeffs # opls/omp

1 1.411 -0.271 3.145 0
2 1.411 -0.271 3.145 0
3 1.411 -0.271 3.145 0

Atoms # molecular

1            1            1      28.6434      8.13178      5.07479
2            1            1      29.6387      7.94753      6.18663
3            1            1      28.9978      7.77279      7.56392
4            1            1      29.9452      7.44029      8.66481
5            1            1      29.4443      7.27984      10.0736
6            1            1      30.4642      6.82663      11.1116
7            1            1      29.8495      6.18569      12.3777
8            1            1      30.8426      6.09899      13.5884
9            1            1      30.2743      5.69587      14.9657
10            1            1     0.210592      5.52183      16.0498
11            1            1      30.9116      4.65741      17.2926
12            1            1     0.683323      4.76089      18.4733
13            1            1     0.154688      3.94366      19.6569
14            1            1      1.07885       4.1827      20.7977
15            1            1     0.554325       3.4733      22.0588
16            1            1      1.42111      3.44416      23.3136
17            1            1     0.874802      2.86617      24.6277
18            1            1      1.89069      3.00928      25.7337
19            1            1      1.41382      2.33987      27.0034
20            1            1      2.28683      2.45204      28.2505
21            1            1      1.69654      1.92677       29.533
22            1            1      2.66512      1.79433       30.721
23            1            1      2.03155      1.02489      31.7695
24            1            1      2.65115      1.15277      33.1572
25            1            1      2.21372     0.193048      34.2752
26            1            1      2.76804     0.470882      35.6979
27            1            1      2.41854       26.413      36.7374
28            1            1      3.00228    0.0379764      38.0418
29            1            1      2.86467      25.9469      39.1821
30            1            1      3.64765      26.2226       40.477
31            1            1      3.64373      25.1238      41.5461
32            1            1       4.5078      25.3318      42.7977
33            1            1      4.53534      24.3382      43.9134
34            1            1      5.16345      24.7963      45.1955
35            1            1      4.69409      23.8903      46.3357
36            1            1      5.22593      24.4449      47.6254
37            1            1      4.75562      23.6038      48.7885
38            1            1      5.54721      23.9173       50.045
39            1            1       5.2484      22.9506       51.162
40            1            1      5.88699      23.1718      52.4826
41            1            1      5.68661       22.042      53.5641
42            1            1      6.00618       22.532      55.0013
43            1            1      6.06662      21.3829      56.0309
44            1            1      6.49369      21.7138      57.4755
45            1            1      6.10477      20.6404      58.5019
46            1            1      6.74589      20.9644      59.8442
47            1            1      6.24811      20.0124      60.9702
48            1            1      7.04285      20.1845      62.2112
49            1            1      6.69582      19.3099      63.3577
50            1            1      7.20977      19.6953      64.7375
51            1            1      6.84586      18.7819      65.9107
52            1            1      7.69478      19.0225      67.1546
53            1            1      7.47581      17.9331      68.1978
54            1            1       8.3648      17.9715      69.4763
55            1            1      7.82154      16.9874      70.5319
56            1            1      8.74387      17.0268      71.7939
57            1            1      8.04804      16.4013      72.9737
58            1            1      8.77839      16.6741      74.2733
59            1            1      8.18077      16.0423      75.5068
60            1            1      8.98379       16.317      76.7774
61            1            1      8.35587      15.7027      78.0258
62            1            1      9.31691      15.8296      79.1991
63            1            1      8.85129      15.0377      80.3853
64            1            1      9.82115      14.8522      81.5126
65            1            1      9.21254      14.4423      82.8636
66            1            1      10.2898      14.0878        83.87
67            1            1      9.62628      13.8057      85.2061
68            1            1      10.6149      13.8239      86.4107
69            1            1      10.0836       13.259      87.6843
70            1            1      11.0872      13.1326      88.9021
71            1            1      10.4689      12.5231      90.1749
72            1            1      11.3701      12.6431      91.3966
73            1            1      10.8075      11.8802      92.5526
74            1            1      11.7733       11.944      93.7343
75            1            1      11.1748      11.3854      95.0499
76            1            1      12.0588      11.3343      96.3043
77            1            1      11.1847       11.195      97.5451
78            1            1      12.0347      11.2897      98.8592
79             1             1       11.1374       10.8713       100.028
80             1             1       11.9524       11.2153       101.264
81             1             1       11.3079        10.984       102.634
82             1             1       12.1245       11.4227       103.864
83             1             1       11.3865       11.2804       105.174
84             1             1       12.0463       11.7002       106.434
85             1             1       11.0437        11.654       107.632
86             1             1       11.7095       11.9668       108.984
87             1             1       10.7481       11.9789       110.119
88             1             1       11.3059       12.5286       111.415
89             1             1       10.4881       12.2708       112.682
90             1             1       11.1853       13.0189       113.802
91             1             1       10.3101         12.98       115.065
92             1             1       10.9489       13.8198       116.224
93             1             1        10.091         13.61       117.467
94             1             1       10.4124       14.5473       118.624
95             1             1       10.0156       14.0463       119.991
96             1             1       10.0972       15.0447       121.174
97             1             1       9.67112       14.5428       122.526
98             1             1        9.5147       15.5761       123.611
99             1             1        9.1222       15.0971       125.009
100             1             1       9.31366       16.2003       126.066
101             1             1       8.44183       16.0832       127.278
102             1             1       8.78995       17.1578       128.338
103             1             1       7.98378       17.0982       129.631
104             1             1       8.56012       17.8036       130.863
105             1             1       7.67053        17.771       132.061
106             1             1       8.14645       18.5032       133.344
107             1             1       7.05205       18.3344       134.456
108             1             1       7.49444       19.0859       135.701
109             1             1       6.46533       19.1069       136.828
110             1             1       6.82926       19.7964       138.135
111             1             1       6.04565       19.2364       139.319
112             1             1       6.66256       19.8647       140.588
113             1             1       5.77506       19.6645        141.72
114             1             1       6.13512       20.5445       142.892
115             1             1       5.20002       20.4716       144.144
116             1             1       5.95084       21.1004       145.365
117             1             1       5.04598       21.1276       146.604
118             1             1        5.7616       21.9103       147.689
119             1             1       4.91089       21.9148       148.905
120             1             1        5.5159       22.4837       150.165
121             1             1       4.53625       22.3722       151.312
122             1             1       4.93454       23.1562       152.603
123             1             1       3.82417       23.0532       153.666
124             1             1       4.34965       23.5777       154.963
125             1             1       3.26797       23.6178       156.048
126             1             1       3.76888       24.0849       157.451
127             1             1       2.74566       24.2753       158.587
128             1             1       3.25963        25.094        159.77
129             1             1       2.48697        24.849       161.045
130             1             1       2.92794       25.7475        162.22
131             1             1       2.16312        25.477       163.502
132             1             1       2.45606       26.4334       164.701
133             1             1       1.56145       26.2951       165.962
134             1             1       2.04519      0.112826        167.27
135             1             1       1.20283      0.107332       168.575
136             1             1       1.91036      0.734966       169.741
137             1             1      0.904908      0.812346       170.913
138             1             1       1.46431       1.59983       172.133
139             1             1      0.500483       1.62928       173.337
140             1             1      0.990575       2.36625       174.586
141             1             1     -0.028335       2.35048       175.702
142             1             1      0.528737       3.12565       176.925
143             1             1       30.6244       3.50461       177.929
144             1             1      0.128643       4.03072       179.237
145             1             1        30.399       4.15506       180.469
146             1             1       30.9759       4.70082       181.794
147             1             1       29.9626       4.67952       182.914
148             1             1       30.5198       5.18099       184.252
149             1             1       29.4386        5.4038       185.328
150             1             1       30.0768       5.92811       186.628
151             1             1       29.1285       6.12575       187.795
152             1             1       29.7744       6.61536       189.051
153             1             1       28.8213        6.6893       190.236
154             1             1       29.3246       7.46416       191.438
155             1             1       28.3182       7.49727       192.578
156             1             1       28.8207       8.31233       193.819
157             1             1       27.9467        8.3091       195.102
158             1             1       28.5403       9.07706       196.311
159             1             1       27.7004       9.03037       197.573
160             1             1       28.2538       9.75502       198.786
161             1             1       27.3771       9.68442       199.971
162             1             1       27.9567       10.0914       201.286
163             1             1       26.8248       10.2928       202.367
164             1             1       27.4233       10.8426       203.644
165             1             1       26.5329       11.0605       204.838
166             1             1        27.122       11.7921       206.077
167             1             1       26.0725       12.0141       207.171
168             1             1       26.7471       12.3461       208.479
169             1             1        25.869       12.3703       209.717
170             1             1       26.4505       12.7211       211.065
171             1             1       25.4222       13.0258       212.196
172             1             1       25.9299       13.6696       213.498
173             1             1       24.9298       13.4856        214.65
174             1             1        25.506       13.8874       216.004
175             1             1       24.6269       13.7611       217.269
176             1             1       25.2148       14.6446       218.397
177             1             1       24.2051       14.7001         219.6
178             1             1       24.5739       15.6875       220.634
179             1             1        23.791       15.4202       221.905
180             1             1       24.3105       16.1891       223.144
181             1             1       23.6547       15.7539       224.479
182             1             1       23.9488         16.48       225.736
183             1             1       22.8577       16.3194       226.828
184             1             1        23.187       17.1937        228.07
185             1             1       22.5145       16.7831       229.377
186             1             1       23.0667       17.6106       230.524
187             1             1       22.4586       17.2003       231.827
188             1             1        23.024       18.0452       232.953
189             1             1       22.4886       17.5444       234.284
190             1             1       23.2936       18.0571       235.542
191             1             1       22.5204       17.7597       236.803
192             1             1       23.1245       18.3621       238.106
193             1             1       22.4391       17.8896        239.42
194             1             1       23.3082       18.1352       240.669
195             1             1       22.4434       17.7647       241.891
196             1             1       23.2392       17.8385       243.238
197             1             1       22.5591       17.3064       244.448
198             1             1       23.2074       17.6105       245.807
199             1             1       22.7508       16.6926        246.92
200             1             1        23.505       16.8428       248.232
201             1             1        23.107        15.761       249.217
202             1             1       23.8957       16.0406       250.493
203             1             1       23.5683       15.1576       251.662
204             1             1       24.3165       15.5045       252.903
205             1             1       24.0044       14.6129        254.16
206             1             1       24.9806       14.8454       255.349
207             1             1       24.4076       14.1473       256.541
208             1             1       25.3704       14.0458       257.722
209             1             1       24.8031       13.4214       258.939
210             1             1       25.7341       13.6057       260.165
211             1             1       25.3407       12.7643       261.352
212             1             1       26.2598       12.7791       262.598
213             1             1       25.7201        12.016       263.783
214             1             1       26.5419       12.3308       265.045
215             1             1       25.9752       11.5502       266.275
216             1             1       26.9396       11.1701       267.355
217             1             1       26.3357       10.6855       268.639
218             1             1        27.364       10.7551       269.767
219             1             1       26.9213       10.1239       271.041
220             1             1       28.0128       10.0804       272.107
221             1             1       27.5025       9.24063       273.326
222             1             1        28.552       9.02848       274.391
223             1             1       28.0116       8.72103       275.777
224             1             1       29.1075       8.78668        276.86
225             2             1       1.11097       11.9092       274.438
226             2             1      0.502965       11.4074       275.708
227             2             1        1.5213       11.4404       276.841
228             2             1      0.935691       10.9001       5.10253
229             2             1       2.00773       10.8289       6.15687
230             2             1       1.53259       10.1558       7.46601
231             2             1       2.51014       10.1523       8.63581
232             2             1       2.00995       9.40314       9.88308
233             2             1         3.022       9.39441       10.9903
234             2             1       2.71816       8.46883       12.1467
235             2             1       3.47861       8.65229       13.4523
236             2             1       3.01146       7.69314       14.5999
237             2             1       3.90578       7.74579       15.8438
238             2             1       3.38753       7.14507       17.1149
239             2             1       4.43557       7.15469       18.2189
240             2             1       3.87391       6.61515       19.5228
241             2             1       4.95978       6.35772       20.5432
242             2             1        4.4928       6.12174       22.0452
243             2             1       5.57268       5.69455       23.0597
244             2             1       5.16781       5.79936       24.5328
245             2             1       6.08208       5.24942       25.5396
246             2             1       5.49851        4.7992       26.8681
247             2             1       6.35199       4.77275       28.1802
248             2             1       5.69255       4.08161       29.4144
249             2             1       6.64642       3.89738       30.6361
250             2             1       5.91385        3.5696       31.9309
251             2             1       6.97515       3.14618       33.0042
252             2             1       6.25373        2.8513       34.3315
253             2             1       7.21353       2.77787       35.4324
254             2             1       6.57487       2.40938       36.7539
255             2             1       7.58333       2.07511        37.839
256             2             1       7.03675       1.73278       39.2128
257             2             1       8.10234       1.67095       40.2909
258             2             1       7.53618       1.09558        41.525
259             2             1       8.34782       1.26622       42.8293
260             2             1       7.88238      0.344622       43.9144
261             2             1        8.5132      0.501126       45.3043
262             2             1       8.06613       26.3936       46.3828
263             2             1        8.9411     -0.207414       47.6253
264             2             1       8.50294       25.8604       48.8368
265             2             1       9.20755       26.1649       50.1002
266             2             1        8.7001       25.1934       51.1401
267             2             1       9.49864       25.2964       52.4448
268             2             1       8.99733       24.5461       53.6239
269             2             1       9.92453       24.6336       54.7913
270             2             1       9.43156        23.886       56.0559
271             2             1       10.4057       23.9652       57.2175
272             2             1       9.80152       23.6242       58.5769
273             2             1       10.7239       23.1028       59.6094
274             2             1       10.0255       22.7855       60.9352
275             2             1       11.0801       22.4151       62.0237
276             2             1       10.6667       21.9555       63.3955
277             2             1       11.7394       21.4258       64.4206
278             2             1       11.2879       21.4632       65.8229
279             2             1       12.2131        21.081       66.9492
280             2             1       11.5404       20.8478       68.3123
281             2             1        12.487       20.3064        69.328
282             2             1       11.8742        19.585       70.5381
283             2             1       12.7495       19.2243       71.7379
284             2             1       12.0575       18.8251       73.0459
285             2             1       13.0148       18.5874       74.2355
286             2             1        12.293       18.0807       75.5324
287             2             1       13.2793       17.7314       76.6339
288             2             1        12.652       17.4542       78.0456
289             2             1        13.736       17.3833       79.1883
290             2             1       13.2368       16.9201        80.522
291             2             1        14.242       17.1121       81.6175
292             2             1       13.6399       16.6837       82.9425
293             2             1       14.6971       16.8531       84.0607
294             2             1       14.0416       16.2286       85.3316
295             2             1       15.0421       16.3364       86.4811
296             2             1       14.3922        15.587        87.617
297             2             1       15.2582       15.7884         88.84
298             2             1        14.839       14.7978       89.9377
299             2             1       15.4013       15.0051       91.3124
300             2             1       15.0111       13.9514       92.3628
301             2             1        15.584       14.2311       93.7673
302             2             1       15.0319       13.4533        94.989
303             2             1       15.7766        13.716       96.2668
304             2             1       15.1129       13.0979       97.4587
305             2             1       15.9491       13.4386       98.7006
306             2             1       15.2381       13.1744       100.059
307             2             1       15.9934       13.5605        101.32
308             2             1       15.1587       13.1247        102.53
309             2             1       15.8062       13.7482       103.721
310             2             1       15.0587       13.5666       104.988
311             2             1       15.6815       14.1001       106.285
312             2             1        14.797       14.0593       107.545
313             2             1       15.4006       14.7213       108.776
314             2             1       14.5354       14.4208       110.082
315             2             1       15.0023       15.2854       111.296
316             2             1       14.1776       15.1086       112.561
317             2             1       14.9034       15.6087       113.852
318             2             1       14.2264       15.4582       115.164
319             2             1        14.586       16.4313       116.271
320             2             1       13.7643       16.0855       117.558
321             2             1       14.4038       16.7746       118.779
322             2             1       13.6692       16.4992       120.072
323             2             1        13.977       17.5462       121.151
324             2             1       13.2674       17.1897        122.42
325             2             1       13.5463       18.1106       123.544
326             2             1       12.7197       17.7748       124.836
327             2             1       12.9475       18.6772       126.046
328             2             1       11.9087       18.9347       127.145
329             2             1       12.5087       19.5482       128.382
330             2             1        11.635       19.4047       129.631
331             2             1       12.2922       20.1968       130.809
332             2             1       11.3085       20.1267       131.999
333             2             1        11.841       20.6602       133.324
334             2             1       10.9231        20.605       134.579
335             2             1       11.3839       21.4035       135.801
336             2             1       10.5548       21.2248       137.098
337             2             1       11.0023       22.0177        138.32
338             2             1       10.0503        21.761       139.555
339             2             1       10.4761       22.5672       140.794
340             2             1       9.72126       22.1621       142.032
341             2             1       10.1593       23.0137       143.219
342             2             1       9.33732       22.8989       144.589
343             2             1       9.69801       23.8409       145.718
344             2             1       8.95793       23.5048       146.986
345             2             1       9.22371       24.5119       148.046
346             2             1       8.62466       24.1644        149.42
347             2             1        9.0893       25.1217       150.583
348             2             1       8.54087       24.6847       151.953
349             2             1       8.66765       25.6807         153.1
350             2             1        7.5199        25.609       154.114
351             2             1       7.51764       26.5471        155.26
352             2             1       7.62658       26.0765       156.678
353             2             1       7.57985      0.351916       157.597
354             2             1       7.34459        26.699       158.965
355             2             1       7.12931      0.906922       159.955
356             2             1       6.44521      0.458165       161.231
357             2             1        6.6409       1.47787       162.304
358             2             1       5.97051       1.00031       163.582
359             2             1       6.30315       2.05032       164.665
360             2             1       5.55317       1.74111       165.948
361             2             1       5.97848       2.66797       167.078
362             2             1       5.15456        2.3553        168.31
363             2             1        5.5764       3.20017       169.472
364             2             1       4.90928       2.90227       170.758
365             2             1       5.14737       3.93344        171.91
366             2             1       4.46858        3.6394       173.241
367             2             1       4.65953       4.74391       174.219
368             2             1       3.81638       4.50957       175.565
369             2             1       4.13478       5.37244       176.783
370             2             1       3.40895       5.21411       178.111
371             2             1       3.90994       6.11752       179.269
372             2             1       2.97598       6.08806       180.461
373             2             1       3.60638       6.78856       181.619
374             2             1       2.82364       6.75835       182.918
375             2             1       3.32354       7.68578       183.997
376             2             1       2.42476       7.46226       185.192
377             2             1       2.70034        8.3909         186.4
378             2             1       1.85755       8.41748       187.711
379             2             1       2.28683       9.35511       188.831
380             2             1       1.48385        9.2739         190.1
381             2             1       2.20834       10.0977       191.251
382             2             1       1.31907       9.95548       192.513
383             2             1        1.6184       10.9354       193.601
384             2             1       1.30005       10.4217       195.033
385             2             1       1.69119       11.4606        196.14
386             2             1      0.779957       11.1254       197.335
387             2             1       1.19412       12.0726       198.529
388             2             1      0.399926       11.9414       199.819
389             2             1      0.939534       12.6208       201.005
390             2             1      0.117042       12.4515       202.302
391             2             1       0.65772       13.2098       203.464
392             2             1     -0.129204       12.9641       204.743
393             2             1      0.377624       13.8085       205.866
394             2             1       30.4963       13.8697       206.945
395             2             1        30.889       14.6647       208.189
396             2             1        30.163       14.2374       209.466
397             2             1       30.6577        14.901        210.73
398             2             1       29.5904        15.223       211.751
399             2             1       29.9782        15.957       213.056
400             2             1       28.9354       15.7674       214.146
401             2             1       29.4737       16.2858       215.503
402             2             1       28.4682       16.7015       216.575