LAMMPS data file via write_data, version 23 Jun 2022, timestep = 11111117

9706 atoms
2 atom types
9690 bonds
3 bond types
9674 angles
3 angle types
9658 dihedrals
3 dihedral types

0 36.89775039 xlo xhi
0 26.67072 ylo yhi
16.029023797998036 220.722580601916 zlo zhi
0 6.440104994757068 0 xy xz yz

Masses

1 14
2 15

Pair Coeffs # lj/cut/omp

1 0.0914 3.95
2 0.1947 3.75

Bond Coeffs # harmonic/omp

1 449.5 1.53
2 449.5 1.53
3 449.5 1.53

Angle Coeffs # harmonic/omp

1 62.0967 114
2 62.0967 114
3 62.0967 114

Dihedral Coeffs # opls/omp

1 1.411 -0.271 3.145 0
2 1.411 -0.271 3.145 0
3 1.411 -0.271 3.145 0

Atoms # molecular

1 30 1 5.78440779526925 1.018834143508898 19.386197462095904 0 0 0
2 30 1 6.019974261005239 1.5601552275857729 20.853360016852356 0 0 0
3 30 1 7.2748418188990405 1.1471097200458173 21.531219704725235 0 0 0
4 30 1 7.497822624786316 1.693349778966008 22.9440092806123 0 0 0
5 30 1 8.782400774458525 1.1234108450632825 23.515169326626765 0 0 0
6 30 1 9.03875077816308 1.8766646569282819 24.81113450445876 0 0 0
7 30 1 10.24078602653163 1.3123693929727422 25.570151845892987 0 0 0
8 30 1 10.357529702086437 1.9467701798584272 26.970170590878553 0 0 0
9 30 1 11.488182214128157 1.2349570657641815 27.756663571631126 0 0 0
10 30 1 12.082902201030947 1.9988805876250961 28.860521672795734 0 0 0
11 30 1 13.004730866585582 1.2396268144419282 29.801310042176468 0 0 0
12 30 1 13.548629372502065 2.2095611086054863 30.842447786110988 0 0 0
13 30 1 14.885718656178684 1.7222933103361464 31.407025213754164 0 0 0
7291 45 1 5.217679719814777 2.561464317957436 30.773421452996963 1 0 0
1435 50 1 3.8569639672518052 14.570739426780245 18.007361269230802 0 0 1
9180 62 1 2.3079342347523664 21.718655903128447 21.21479600343371 0 0 0
2057 12 1 4.974894920966655 23.723057800416928 19.217538484152847 0 0 0
8058 54 1 0.8958747019271815 10.323528602996397 25.40983893052229 1 0 0
8511 54 1 2.1253157870552997 14.940682775728126 27.000231127565172 0 0 0
8730 56 1 1.1083435704861253 17.12361257025004 19.3392714782649 0 0 0
2972 18 1 17.236489259069533 6.80738020917849 16.400094783674955 0 0 0
223 30 1 4.178547171046703 0.6791745045740242 17.551361895244533 0 0 0
224 30 1 4.554918582220068 1.5706948323291388 18.70404914449188 0 0 0
225 5 1 11.846484143769027 3.590452941260255 22.36929339940115 0 0 0
226 5 1 13.120398666167912 3.229009762677962 23.15264114978652 0 0 0
227 5 1 13.26905273726165 3.401786839545706 24.677668904277354 0 0 0
228 5 1 14.680746180960563 3.1842144179526124 25.23650285499021 0 0 0
229 5 1 14.817651355191934 3.4575492909631853 26.73318504806835 0 0 0
230 5 1 16.274264613049088 3.3327549426664946 27.235876005447267 0 0 0
231 5 1 16.596990944364364 3.7042415507024904 28.663929334856412 0 0 0
232 5 1 18.033713381627546 3.5827451730812823 29.2346779009112 0 0 0
1216 52 1 7.761324245115898 11.521455864465455 16.600049502552263 0 0 0
3577 26 1 16.31690180422142 11.03909996445829 16.304695166870488 0 0 1
1145 52 1 18.882648986907668 12.615248611920979 30.57512479063152 0 0 0
7677 47 1 4.8349070688880165 7.1045532178876885 30.704829979319705 0 0 0
2968 47 1 12.954271444263485 5.326496914612906 18.075061379251903 0 0 0
9630 12 1 0.3521381842485547 25.963251747723607 19.134677411746075 1 0 0
910 9 1 15.620199705963106 11.196931712141113 32.10478676666723 0 0 0
445 5 1 8.67303356564231 3.246118796516539 18.426415482090135 0 0 0
447 5 1 10.468146302905527 3.290235598728196 20.295196933536047 0 0 0
448 5 1 11.842324911815716 3.0558275415412086 20.93985953618352 0 0 0
449 7 1 10.153577936756664 6.36557364789154 26.638815149037768 0 0 0
450 7 1 11.187052536087906 5.5530390522699005 27.440673974204028 0 0 0
451 7 1 11.903757277597572 6.239096904670504 28.56126424623855 0 0 0
452 7 1 13.145922494073151 5.600278391543746 29.139956232997726 0 0 0
453 7 1 13.536172936153262 6.325438810289264 30.367255203582786 0 0 0
454 7 1 14.649757941938475 5.72921014902788 31.230196247796762 0 0 0
455 7 1 15.040517067283979 6.732856406474662 32.436994391501884 0 0 0
456 7 1 16.233706504694943 6.197588783087277 33.24367712697034 0 0 0
7673 47 1 1.6269114165929115 6.755835762454213 26.88489312347337 1 0 0
4418 28 1 17.82820375037947 24.152044502822392 24.504701582172288 0 0 0
2364 14 1 7.435106265753173 25.664189412930163 16.35581620682984 0 0 0
2750 47 1 17.471701628944576 5.668640357131898 24.21795563512154 0 0 0
5549 59 1 3.8749322598146794 9.555406455077488 34.54595373085651 0 0 0
8509 54 1 0.5656240702292898 14.695307817735404 25.048733040910655 0 0 0
9403 57 1 6.301857946584769 24.148815014550042 32.283387109211546 0 0 0
1229 10 1 18.138106013614266 16.335230071572095 35.90596111588401 0 0 0
9185 62 1 5.825895180955773 21.384120322335637 26.427195108436813 0 0 0
8518 54 1 7.636264291177681 16.161239337432104 33.81955670501378 0 0 0
668 7 1 6.562779245365008 5.308476810380184 21.32841458109798 0 0 0
669 7 1 7.143642999356362 6.209749467950094 22.394518582878483 0 0 0
670 7 1 8.327178530987362 5.620540648206144 23.17309696383879 0 0 0
671 7 1 8.783997612394682 6.272146626197518 24.494772215830398 0 0 0
672 7 1 9.783122478920548 5.56325357958683 25.407882610810937 0 0 0
673 10 1 10.189179664175638 7.921339363125338 20.383061372524764 0 0 0
674 10 1 11.206131190525186 7.095656073219127 21.211723007578026 0 0 0
675 10 1 11.82898611835794 7.817616229826395 22.35692349013872 0 0 0
676 10 1 12.820817515709487 7.102787993805276 23.23402015800385 0 0 0
677 10 1 13.263486686695552 7.986655522950514 24.387841067427246 0 0 0
678 10 1 14.321289642288928 7.308915848737191 25.33418652960917 0 0 0
679 10 1 15.017200744087292 8.260779312603637 26.341710324918658 0 0 0
680 10 1 16.12363168802857 7.66917096691627 27.112469051338042 0 0 0
681 10 1 16.84047122391821 8.51861108552358 28.211623123314723 0 0 0
682 10 1 17.824799591268132 7.725740514904355 29.011521915862033 0 0 0
8510 54 1 1.437230548175505 15.692708845129207 25.86321314631504 0 0 0
9647 12 1 13.764887957649504 0.18421100435983356 35.939077902609384 0 1 0
9631 12 1 1.585152448901812 25.255190401057742 19.787290035415516 0 0 0
459 7 1 18.298580209999685 7.268466950687875 36.40735165752198 0 0 0
9405 57 1 7.746203724982388 24.078082425010464 34.22613706103587 0 0 0
8961 59 1 5.379603907216598 20.361495718994984 31.858728617221004 0 0 0
895 10 1 8.756488672038476 7.798685293735091 18.15705943473763 0 0 0
896 10 1 9.455368753181062 7.121709100982559 19.358090154912627 0 0 0
897 9 1 5.455443048348628 9.626280823917343 19.13880146994485 0 0 0
898 9 1 5.928964229215403 10.40963940519275 20.329160467049217 0 0 0
899 9 1 6.763517267840795 9.60502742907754 21.24682163501785 0 0 0
900 9 1 7.289180227437365 10.553514360850825 22.31354279392127 0 0 0
901 9 1 8.395477239555373 9.922124877332314 23.1889560266748 0 0 0
902 9 1 8.966200719955072 10.811573022095084 24.329678893826294 0 0 0
903 9 1 9.794746488348315 10.075144364473513 25.363165915563318 0 0 0
904 9 1 10.654968169050758 10.925554157719592 26.286783538407644 0 0 0
905 9 1 11.715447187033908 10.212863961228456 27.14778502111446 0 0 0
906 9 1 12.367261392640085 11.061815633142958 28.22009889790121 0 0 0
907 9 1 13.391240000386654 10.332328483968428 29.020973292825957 0 0 0
908 9 1 14.108683948202994 11.203245083297439 30.095972108853086 0 0 0
909 9 1 14.7655087990778 10.345117473912012 31.185226228877852 0 0 0
894 10 1 7.981595447796582 6.9213091926864765 17.088166204544372 0 0 0
8063 54 1 4.645345192518781 11.65416010130274 30.271259900150916 0 0 0
9638 12 1 6.318014549518013 0.12912995513924946 27.174418342389977 0 1 0
8742 56 1 10.543896711809017 18.299480102572712 31.354732951513625 0 0 0
8295 5 1 12.257720004465748 13.948282166244185 33.834130379320115 0 0 0
2967 36 1 12.663620454713907 4.730414705328487 16.708528053790882 0 0 1
1758 6 1 4.7064619340335065 18.408787132041745 18.141269388785368 0 0 1
5103 56 1 3.9397551926838297 5.122759642473128 34.94009086158823 0 0 0
458 7 1 17.846734334545882 6.484351261121218 35.168496760445805 0 0 0
975 9 1 4.467617676236967 10.305013970710407 18.154728607587458 0 0 0
1134 52 1 9.983549592330535 12.167788097188275 19.84174272563468 0 0 0
1135 52 1 11.095611417461253 11.358146723865643 20.52835890536881 0 0 0
1136 52 1 11.829164049671903 12.115274868310257 21.595735387266203 0 0 0
1137 52 1 12.789213925357528 11.34073611472015 22.54618154845344 0 0 0
1138 52 1 13.698728405604612 12.271415399037473 23.38080873696878 0 0 0
1139 52 1 14.115602544401584 11.794471825298524 24.796918889313503 0 0 0
1140 52 1 14.991790618110706 12.771662472519736 25.550769787940553 0 0 0
1141 52 1 15.751775440411798 12.139542323702775 26.754830610595185 0 0 0
1142 52 1 16.762630863256987 13.019367357499386 27.4516387622536 0 0 0
7672 47 1 1.119888909832087 5.911120999890243 25.70480608612484 1 0 0
3578 26 1 17.214437865143637 11.949831758446349 17.16790425176745 0 0 1
2740 16 1 17.358284018336704 2.2990143526369327 16.768610804955273 0 0 1
1599 60 1 8.063309138395821 16.452659034040085 17.38967551992829 0 0 0
8962 59 1 6.706601958377204 20.085776435796177 32.507648760121306 0 0 0
3200 19 1 18.502186332311368 9.853726369205946 24.58703237790929 0 0 0
2056 12 1 4.442586526013443 22.771339401360095 18.106497771107847 0 0 0
7850 43 1 13.325030663508809 8.975161616359584 35.26052860585784 0 0 0
1218 52 1 9.498035118439818 11.416124616984945 18.603432079851014 0 0 0
1219 10 1 10.378521169440962 15.393627150214051 26.04605975644886 0 0 0
1220 10 1 11.6648097051191 14.858557321690917 26.611518729248004 0 0 0
1221 10 1 11.818189591627316 15.306929182106161 28.017729858858686 0 0 0
1222 10 1 13.03820763881339 14.812420238470885 28.67084971271863 0 0 0
1223 10 1 13.612151873482981 15.64116368389881 29.843456505872986 0 0 0
1224 10 1 14.89681221862006 15.101313700294403 30.615162662884416 0 0 0
1225 10 1 15.275749173152763 15.884848214170828 31.84064859665493 0 0 0
1226 10 1 16.49862935309379 15.266950865020881 32.61304201828018 0 0 0
1227 10 1 16.75915181992513 16.087451716740684 33.84327743756278 0 0 0
1228 10 1 17.75706137905912 15.477047464041934 34.7630563426279 0 0 0
3805 23 1 18.484053424786097 16.788813960131392 18.943902005430207 0 0 0
973 9 1 2.920357431629997 10.015312930158624 16.119951158647712 0 0 0
8064 54 1 5.488101243753821 10.884049911884699 31.331714167148043 0 0 0
912 9 1 17.014730817905733 11.527329142879235 34.14350400116986 0 0 0
7451 46 1 1.3303086620775484 3.7000590370544835 20.331883950002755 0 0 0
1143 52 1 17.40992242752756 12.354982755394198 28.62560969900575 0 0 0
3587 22 1 16.846434790523936 13.999628942565582 21.967639953025984 0 0 0
8513 54 1 3.858807310891381 15.067461931565234 28.8764411193429 0 0 0
1438 10 1 6.906425249349651 14.394553887240587 20.634749106410805 0 0 0
1439 10 1 7.29198399137875 15.062174493169232 22.01237244155258 0 0 0
1440 10 1 8.350162380189845 14.349404140293796 22.855351307192244 0 0 0
1441 10 1 8.708103704807689 15.193271234831668 24.030035026291564 0 0 0
1442 10 1 10.000524966933417 14.777928528058998 24.67168348841053 0 0 0
1522 60 1 9.600150853271952 16.912929866643346 19.38296910856999 0 0 0
1523 60 1 10.764834423015467 16.33021339011753 20.18613641378529 0 0 0
1524 60 1 11.315928825629971 17.224982045898045 21.29214458311799 0 0 0
1525 60 1 12.51318674416177 16.545939540816853 21.98899775811165 0 0 0
1526 60 1 13.045290283200956 17.327431059124535 23.159044639718577 0 0 0
1527 60 1 13.923505612614168 16.451823480243927 24.100406241613218 0 0 0
1528 60 1 14.578613331758726 17.388936814940525 25.073630583957048 0 0 0
1529 60 1 15.543057170237025 16.661426114874065 25.97096707528273 0 0 0
1530 60 1 16.099422430644633 17.471015576243794 27.133745641846595 0 0 0
1531 60 1 17.245014398777894 16.872824858089064 27.954914517828975 0 0 0
1532 60 1 17.759409196786002 17.92800836424011 28.92638904566757 0 0 0
9399 57 1 3.1042237224550977 24.056311405592606 28.211396174369476 1 0 0
683 10 1 18.40344174350031 8.51684615872102 30.210691065614988 0 0 0
1437 10 1 5.547147826029564 14.905078287451914 20.021502893420582 0 0 0
7292 45 1 5.7850631416725316 1.6211023770355952 31.890286709342753 0 0 0
8737 56 1 6.459891825155248 17.303393561310447 26.439242422158006 0 0 0
1598 60 1 7.590244613230836 15.596465791371644 16.18565841870877 0 0 0
1600 60 1 9.26669882275402 16.015142447131797 18.213589737148972 0 0 0
1601 9 1 11.052798315969593 18.8610219480478 26.14192828791873 0 0 0
1602 9 1 11.484967430780042 19.77479620046953 27.24791180183189 0 0 0
1603 9 1 12.607594427961665 19.24332436418324 28.063686455740118 0 0 0
1604 9 1 13.097913435399573 20.18378615466721 29.20315258231785 0 0 0
1605 9 1 14.147353919227113 19.53443041176695 30.07961455903115 0 0 0
1606 9 1 14.434048181185744 20.35721012347952 31.317319382083014 0 0 0
1607 9 1 15.64024759206873 19.724654921306648 32.148019716843194 0 0 0
1608 9 1 15.930075001616185 20.628782523521096 33.321208829835115 0 0 0
1609 9 1 17.198158352438668 20.132016605103313 33.98778226741058 0 0 0
1610 9 1 17.446320558958988 20.738505630274723 35.39698321345956 0 0 0
4411 28 1 12.847067260582014 22.272430121198678 17.142047411470973 0 0 0
7848 43 1 11.848572581925165 8.937168499866324 33.135750303803945 0 0 0
5550 59 1 4.583357354427697 8.692440520032847 35.55640401616155 0 0 0
8062 54 1 4.2201457442685975 10.724534032512464 29.162910364403423 0 0 0
667 7 1 5.589289160451683 6.036537191604414 20.415055093404966 0 0 0
9194 62 1 12.986249318477064 23.115177781569425 35.020847868626255 0 0 0
8956 59 1 1.8805183890705037 19.39157453523786 26.590081164417107 1 0 0
1674 9 1 6.214892673774344 18.556685371098773 20.27209045209952 0 0 0
1675 9 1 6.551070031307043 19.400121330563497 21.49077430536894 0 0 0
1676 9 1 7.709583680774575 18.770792211860684 22.287089077723152 0 0 0
1677 9 1 8.11953697469634 19.568503287848518 23.55003934677516 0 0 0
1678 9 1 9.347303552146425 18.894672677562916 24.210116999621327 0 0 0
1679 9 1 9.868045720804167 19.5126296313431 25.491595032510176 0 0 0
1759 62 1 10.362411257741213 20.42040307310672 19.634855634795137 0 0 0
1760 62 1 10.944206200077081 21.26632599943116 20.74710565607489 0 0 0
1761 62 1 11.981760124075976 20.68416852739919 21.76848616960182 0 0 0
1762 62 1 12.801332141222295 21.532891411565185 22.776632644901966 0 0 0
1763 62 1 13.841900376587692 20.89192680758968 23.67347320270191 0 0 0
1764 62 1 14.25181676694853 21.697653814566895 24.863368679855455 0 0 0
1765 62 1 15.337329922425553 21.03075399257423 25.717907150681263 0 0 0
1766 62 1 15.522506128700307 21.8491687332469 26.974218408501674 0 0 0
1767 62 1 16.72975914530192 21.43681379118388 27.77976293123814 0 0 0
1768 62 1 16.90002831606469 22.238733496141098 29.109035355163773 0 0 0
7139 43 1 0.5093344123399889 0.42599220576415664 31.89294013435547 1 1 0
7141 43 1 2.3380649515626994 0.6474410966491109 33.89262352296447 1 1 0
666 7 1 5.316901548182815 5.2121486019735705 19.185305932682432 0 0 0
4634 30 1 17.358042411816115 24.836152472699585 17.05534039138426 0 0 0
8068 54 1 8.64551476206835 11.084616118237266 35.40243103452022 0 0 0
2585 55 1 11.970365342563992 1.106002898560541 16.31738966207356 0 0 1
1981 62 1 8.68260864169496 20.338336393918638 17.700661465210654 0 0 0
1982 62 1 9.248147024407064 21.211922077373085 18.901545428301226 0 0 0
1983 12 1 9.142221674048644 23.36505338691104 24.106019241994534 0 0 0
1984 12 1 9.201069928726545 23.896204025956482 25.563216605816322 0 0 0
1985 12 1 10.629598698226241 23.496287254343738 26.034083131208433 0 0 0
1986 12 1 10.749022352962484 23.90212151929664 27.523328797023012 0 0 0
1987 12 1 12.120802303152773 23.60793415986182 28.09391474333523 0 0 0
1988 12 1 12.36054017452309 24.122931052524617 29.52837727955683 0 0 0
1989 12 1 13.647177749571869 23.740971942561764 30.15427691470554 0 0 0
1990 12 1 13.823491485059876 24.487744467091378 31.452044342272302 0 0 0
1991 12 1 15.093175482292686 24.095746706205038 32.169523520793675 0 0 0
1992 12 1 15.434767882198155 24.866274176865705 33.44047556929151 0 0 0
1993 12 1 16.84449173917956 24.501310904154366 33.84617327592858 0 0 0
1994 12 1 17.137137268647393 24.899848107224187 35.312012787053426 0 0 0
7295 45 1 8.146446722199343 2.707276014264491 34.657947693926914 0 0 0
9407 57 1 9.116993108747595 24.339424086423406 36.34521434446336 0 0 0
3804 23 1 17.933070149777738 15.885092863179867 17.834528580074277 0 0 0
1436 10 1 5.095762155607064 14.131992664526924 18.754765595156545 0 0 0
5547 59 1 2.263373177875139 9.670749495284355 32.64726671388108 1 0 0
3588 22 1 17.765133693643506 14.843457862073755 22.826729254183473 0 0 0
8955 59 1 0.6745787330818348 19.975442624676123 25.871681867650736 1 0 0
2058 12 1 6.167047326969075 23.086948239713262 19.986508269868672 0 0 0
2059 12 1 6.524685630068223 23.861908502393998 21.230269289778857 0 0 0
2060 12 1 7.741071013874965 23.27293029177567 21.93441401806704 0 0 0
2061 12 1 8.094686174528746 24.036080177670364 23.174040944429727 0 0 0
2141 14 1 8.429149248076358 25.109543590652233 17.46593413863679 0 0 0
2142 14 1 9.339880471583342 26.101925694136817 18.101148169819474 0 0 0
2143 14 1 10.175362304682324 25.380704599124844 19.14759725577959 0 0 0
2144 14 1 10.930352257254642 26.26568333259966 20.137610539618603 0 0 0
2145 14 1 11.793109820366894 25.379145456592674 21.074790841581812 0 0 0
2146 14 1 12.363538725674854 26.235896463199257 22.239776562956013 0 0 0
2147 14 1 13.121957318849153 25.498860009342668 23.336116179400143 0 0 0
2148 14 1 13.689658208116237 26.223443266276504 24.550700248680187 0 0 0
2149 14 1 14.585246878835258 25.42736772033976 25.539608016386524 0 0 0
2150 14 1 15.062724003454841 26.287664625886226 26.68146827074836 0 0 0
2151 14 1 16.01926171474288 25.57061219258105 27.614627339951042 0 0 0
974 9 1 3.767187797816836 9.270266787731684 17.190425352278854 0 0 0
9640 12 1 7.824682015422159 0.3510933055954213 29.27736253170694 0 1 0
9635 12 1 4.466067523041372 25.674768805360888 23.995425939624248 0 0 0
7294 45 1 7.207192517633716 1.8239386681685388 33.97282832876037 0 0 0
7289 45 1 3.276857324792943 2.471417267785292 29.029636950721 1 0 0
8516 54 1 6.18954527416225 16.203188900490044 31.8027924823727 0 0 0
7849 43 1 12.084021034490156 9.561892773357808 34.53598285198906 0 0 0
2365 15 1 15.0760732854937 1.375910645827912 20.35398273311247 0 0 0
2366 15 1 16.030036729621035 0.5313658888876532 21.267340541592176 0 0 0
2367 15 1 16.1987576339997 1.1636806699447082 22.630961582966805 0 0 0
2368 15 1 17.551775531862955 0.7418391310404918 23.20996983037597 0 0 0
9406 57 1 8.098136461695415 25.01823399423681 35.38633438079877 0 0 0
7676 47 1 4.010040096937297 6.182500140215073 29.79424821926667 0 0 0
2152 14 1 16.68645330967663 26.588980016494794 28.519711297150838 0 0 0
6377 39 1 4.191582904006125 17.500342704226593 34.87764010966585 1 0 0
15 30 1 16.356532780426093 1.887057825437598 33.43376354507615 0 0 0
2588 15 1 14.705602153624014 0.5917934899575019 19.082831064185008 0 0 0
1769 62 1 18.134415120305178 21.834692544604476 29.97639256319858 0 0 0
7682 47 1 9.060100915146725 6.7796011236516085 35.54560950505282 0 0 0
7143 43 1 3.7538386684871026 0.5174611776497772 35.88655277560254 0 1 0
9189 62 1 9.38813890145178 21.63115939842856 29.992655818104502 0 0 0
2747 47 1 15.781421407513717 5.045215726606639 20.65277081610693 0 0 0
2748 47 1 15.99123483148824 5.653802220346079 22.02749399138497 0 0 0
2749 47 1 17.220391421609975 5.180172672768505 22.787197627520293 0 0 0
1434 50 1 3.6134456747866985 13.791880574171637 16.68355330197268 0 0 1
17 30 1 18.181238979888597 2.417298169163476 35.20472919552245 0 0 0
222 30 1 2.9313995351650335 1.1417612488448625 16.80810544408431 0 0 0
8957 59 1 2.249214130075434 20.080719534975216 27.84755636486696 0 0 0
9646 12 1 12.334502949538695 0.35013230612642365 35.440690632926405 0 1 0
2969 47 1 14.261526664120705 4.928924924259208 18.659075226239626 0 0 0
2970 47 1 14.447286797129076 5.464007642223236 20.043523813755012 0 0 0
7678 47 1 5.624749041996501 6.371506432798322 31.75406624053973 0 0 0
4417 28 1 17.527480703675977 23.21303908355222 23.236107412751767 0 0 0
8747 56 1 14.70869195082687 18.279453277604098 35.94730412323069 0 0 0
8059 54 1 1.577281135587595 11.233339983052051 26.356196201873505 1 0 0
3195 19 1 14.556811333531911 9.904520202319906 19.43137250565185 0 0 0
3196 19 1 15.134668825092527 9.206577827923734 20.654535697910674 0 0 0
3197 19 1 16.126538902562952 9.996182903644613 21.43635065663404 0 0 0
3198 19 1 16.644681890505804 9.587217141952319 22.806413245066725 0 0 0
3199 19 1 17.836698024632174 10.487642056499915 23.370103433651824 0 0 0
7285 45 1 0.2962666026552219 2.1139377196095714 24.806862287886588 1 0 0
7834 43 1 0.6655301570345039 7.525824623490852 19.093917025388787 0 0 0
8065 54 1 6.3856507052405025 11.739744752743068 32.293646060679855 0 0 0
1757 6 1 3.5591630717706684 19.045692878345662 17.258515435375426 0 0 1
2587 15 1 13.559749003765559 1.1385271107297084 18.299108272700344 0 0 0
9401 57 1 4.813391465235454 24.00340816516883 30.18482118024266 0 0 0
8733 56 1 3.597013035197873 16.612233175216517 22.318297078064724 0 0 0
9191 62 1 10.744981569503313 21.645423314314005 32.142247262945396 0 0 0
5100 56 1 1.5459442414080895 4.098342458990632 32.08547747801482 1 0 0
1217 52 1 8.489995145197048 12.201518311055766 17.80583276346275 0 0 0
8958 59 1 3.470481535162791 19.512465549524403 28.56668378918959 0 0 0
6373 39 1 0.6895438749986459 17.484687477743613 31.328452695849727 1 0 0
3583 22 1 13.904636821960846 13.867047691525483 18.077308590947773 0 0 0
3584 22 1 14.403732007149973 14.674330781016073 19.25377547712379 0 0 0
3585 22 1 15.33704187242844 13.840798792870437 20.08361864486072 0 0 0
3586 22 1 16.029925323045 14.769737296823777 20.99276504706297 0 0 0
4033 34 1 18.20894935555228 18.89137756683018 23.302277342531898 0 0 0
2741 16 1 17.65615127305272 3.0320837894573125 18.039719040505485 0 0 1
8746 56 1 13.253581569568128 18.418801247437255 35.61949321396989 0 0 0
7681 47 1 8.006821023326665 7.506775891971334 34.69889255031019 0 0 0
5102 56 1 3.2620570485986673 4.176719708330862 33.96403452851628 1 0 0
9639 12 1 7.450450082842405 26.264777802262742 28.031292337938684 0 0 0
9184 62 1 5.009279197113515 22.20933338952767 25.46813490704843 0 0 0
4028 34 1 13.841978852141462 18.864273181955973 18.667449405331322 0 0 0
4029 34 1 15.030373449107437 18.304880368017468 19.420046828627495 0 0 0
4030 34 1 15.327794479260167 19.111196813228858 20.72415969155968 0 0 0
4031 34 1 16.391243574207625 18.38178814226359 21.61181056946093 0 0 0
4032 34 1 16.955582815075548 19.39392365600199 22.601563372052446 0 0 0
7286 45 1 1.3788997451911202 1.4743548467758378 25.647253811460246 1 0 0
8280 5 1 0.7436160152250656 11.899987225654828 18.61398426772991 1 0 0
9400 57 1 3.4395739801378165 24.45756475193593 29.65569019230879 0 0 0
14 30 1 15.322686061485385 2.5867854658975817 32.560230920261816 0 0 0
4106 34 1 13.54763381039793 18.176615845972517 17.32584403809288 0 0 0
5932 1 1 3.047835510792961 13.805901370970501 34.29555564066193 1 0 0
5931 1 1 2.9697293649267027 13.506999220836333 32.82014502326963 1 0 0
9402 57 1 5.037691239403 24.61222248985117 31.5712590803165 0 0 0
4027 23 1 16.87822100976518 16.433762130993383 16.88701273339975 0 0 0
3276 19 1 13.710304860999765 9.038032097295757 18.538516265330728 0 0 0
3582 22 1 12.937662067442199 14.634176460751652 17.171087184556914 0 0 0
4034 34 1 18.581094952863413 19.692012565722493 24.582218712396624 0 0 0
4413 28 1 14.664650466768096 22.544558847365582 18.988550777124015 0 0 0
4414 28 1 15.134557608687778 23.588039560763594 19.99384913070507 0 0 0
4415 28 1 16.08630087990391 23.04716346390831 21.05837293963949 0 0 0
4416 28 1 16.483713204761003 23.85405986390793 22.32289307690601 0 0 0
6762 41 1 1.0384145168615941 22.698664822535445 31.74288571053585 1 0 0
446 5 1 10.150102286808737 3.0574470629918538 18.84986201947907 0 0 0
7293 45 1 6.65061453220511 2.5134382543677987 32.72775694037453 0 0 0
6375 39 1 2.3960633197914705 17.595468865078477 33.16922159283416 1 0 0
9183 62 1 4.428185870588234 21.266615981826295 24.37316449265375 0 0 0
9404 57 1 6.65260690760017 24.89727330008887 33.57625614866611 0 0 0
8512 54 1 2.8676639320140813 15.792870437577026 27.97867479172231 0 0 0
665 6 1 4.3565424560245765 5.759361923092003 18.14304289628904 0 0 1
9181 62 1 3.2382940272679943 20.96189389570632 22.178637869638546 0 0 0
6378 39 1 4.626804234007193 18.315860994726627 36.13345768194719 0 0 0
1980 62 1 7.85100370649448 21.084050355100846 16.781676767246317 0 0 0
7837 43 1 2.758896635247944 8.61089666943966 22.377603852157225 0 0 0
5104 56 1 5.0099141407774 4.3648549613293905 35.71509585304173 0 0 0
6765 41 1 3.735122574439168 22.183616201630937 34.63744583891962 0 0 0
7836 43 1 2.192506831526445 7.768882133400882 21.18952432344433 0 0 0
7453 46 1 2.9246308529607834 3.9121694627607764 22.416360727278448 0 0 0
9190 62 1 9.70134525954146 22.35237540862538 31.32602586218498 0 0 0
8959 59 1 3.9678847063029834 20.236953909414478 29.83128118274208 0 0 0
6763 41 1 2.213297742664456 22.06019046459343 32.49482651043653 0 0 0
8732 56 1 2.717307407975347 17.398794849089963 21.31021466312131 0 0 0
5930 1 1 1.5126987976834587 13.332099634316299 32.33753936331095 1 0 0
5929 1 1 1.2311940814113673 13.162156027240064 30.868322912571074 1 0 0
8283 5 1 2.6050896464416495 12.862171880924073 21.848318532464994 0 0 0
9188 62 1 8.302120925803623 22.299562377579708 29.186792597305104 0 0 0
2973 18 1 17.40735515252445 7.363147945247057 17.82345559868851 0 0 0
2153 14 1 17.68212375916906 25.892033138004887 29.405589560729315 0 0 0
1770 62 1 18.52125846167303 22.728961589575228 31.077778208332354 0 0 0
8743 56 1 11.590520694190056 17.549918745042646 32.22971949264572 0 0 0
3581 22 1 12.218559968673356 13.675469733071656 16.183025282580513 0 0 0
8965 59 1 8.656487932174635 20.728438055036108 35.925953683771084 0 0 0
7674 47 1 2.584276654975053 5.878525201829638 27.738054554513184 0 0 0
9645 12 1 12.111674936376835 26.453103634161142 33.998881000626895 0 0 0
911 9 1 16.126533410333156 10.596899197304436 33.43088217097938 0 0 0
1144 52 1 18.09118439456834 13.321403046976977 29.539558982078894 0 0 0
5101 56 1 2.2788724677126684 4.919053942484832 33.16481272306007 1 0 0
2055 12 1 3.3338040444494736 23.38965248109055 17.22806910273948 0 0 0
9637 12 1 6.009802187297067 25.96811945634187 25.955471241510494 0 0 0
233 5 1 18.321470773172187 4.120025898546016 30.59054501371557 0 0 0
9187 62 1 7.627983637869438 21.40439494215838 28.18693920938515 0 0 0
4412 28 1 13.692301164861762 23.23794635812172 17.99841618715626 0 0 0
3275 19 1 12.986753299520917 9.912662321407662 17.527049200400263 0 0 0
8061 54 1 3.467937769466323 11.409171596036208 28.063668266719816 0 0 0
913 9 1 17.726117603252018 10.80693910473842 35.312437924448446 0 0 0
8281 5 1 1.1406184385674134 12.712459684572565 19.84731923882312 0 0 0
3579 20 1 18.021125068802156 11.226276232773099 18.285997959372512 0 0 0
8282 5 1 2.34124601991964 12.071992894654915 20.58704540004068 0 0 0
8731 56 1 1.9728911231605037 16.45890253718141 20.40954157204393 0 0 0
9193 62 1 12.459922144930793 22.025640020357265 34.04014673874727 0 0 0
7287 45 1 1.7113473754925987 2.248490200012152 26.918046303522807 1 0 0
9644 12 1 10.926998802466656 0.3952759636904499 33.273013364740606 0 1 0
8741 56 1 9.97045621552692 17.482234403484885 30.175499404002363 0 0 0
8297 5 1 13.771052832504072 14.406488632585924 35.82659026969 0 0 0
7835 43 1 1.1772289299994771 8.42595680426661 20.216688975906088 0 0 0
7454 46 1 4.05553563145787 3.354765243022197 23.213315798780506 0 0 0
7455 46 1 4.552195507711753 4.27340559926996 24.338631123182942 0 0 0
7456 46 1 5.543147223608412 3.6061278461669373 25.262643751429056 0 0 0
7457 46 1 6.028362981149805 4.513587646405256 26.404506900434086 0 0 0
7458 46 1 6.876380172700992 3.8545201614035416 27.45219624367211 0 0 0
7459 46 1 7.456139542455603 4.687145536454977 28.61480941414652 0 0 0
7460 46 1 8.535196789537546 3.9183429311531195 29.46704401803659 0 0 0
7461 46 1 9.045542962683745 4.71321189201458 30.716280479863414 0 0 0
7462 46 1 10.077487726925755 3.986692530704989 31.527771413067306 0 0 0
7463 46 1 10.744871050033257 4.886399757327708 32.56837654539828 0 0 0
7464 46 1 11.716644274355124 4.243233010892035 33.58261596634489 0 0 0
7465 46 1 12.20793902170602 5.172218128083423 34.70238765075169 0 0 0
9632 12 1 1.945026848480009 25.949859142866593 21.10210727351388 0 0 0
8736 56 1 5.297941847146864 17.87590551959133 25.68107098223515 0 0 0
6764 41 1 2.678510337261426 22.83121721049929 33.750888423976704 0 0 0
9636 12 1 4.678910456706373 26.350938320868735 25.30631457255035 0 0 0
9643 12 1 10.796960031925538 26.3437095004738 31.90765643462593 0 0 0
9186 62 1 6.718826451306206 22.16789116053795 27.25170800827808 0 0 0
8963 59 1 6.931954778248927 20.736132424484875 33.86435209166184 0 0 0
8744 56 1 11.966194102082415 18.356779733065796 33.47337892794967 0 0 0
9179 62 1 1.366096306475732 20.922130754687842 20.30476911213792 0 0 0
7679 47 1 6.42778840056892 7.331422732564058 32.69588058609543 0 0 0
7680 47 1 7.358886462853031 6.5622291584875025 33.700464679783124 0 0 0
9633 12 1 3.1379554078247596 25.50493030831868 21.852716428326495 0 0 0
8735 56 1 4.9833355130052 16.90834345907697 24.567362280332397 0 0 0
8960 59 1 5.239301942749396 19.774209337119707 30.467442310997143 0 0 0
7290 45 1 4.042183651456971 1.8087091689264698 30.151712260542993 1 0 0
5934 1 1 4.497117355286971 13.792328105408474 36.42067839384136 0 0 0
457 7 1 16.783472667485956 7.109666727568543 34.340720815964616 0 0 0
9192 62 1 11.3544917606556 22.63905743859614 33.16534654570616 0 0 0
4187 39 1 17.601437295860073 20.316576071656577 17.383004406735495 0 0 0
8740 56 1 8.61957892121641 18.09123689897665 29.68892026943692 0 0 0
8515 54 1 5.677036541200379 15.349415641321254 30.648724977995613 0 0 0
2586 15 1 12.968001431360792 0.33444463113140666 17.146440109378755 0 0 0
7838 43 1 3.6369173611296515 7.881296002756057 23.345294722502487 0 0 0
7839 43 1 4.314283906427704 8.71649119791597 24.475716844617992 0 0 0
7840 43 1 5.406397238162118 8.068327868040221 25.30165315646312 0 0 0