LAMMPS data file via write_data, version 29 Oct 2020, timestep = 32000000

10752 atoms
2 atom types
10752 bonds
3 bond types
10752 angles
3 angle types
10752 dihedrals
3 dihedral types

-1.4019591925125496e-01 3.1008115919238300e+01 xlo xhi
-1.2113307625790526e-01 2.6791853076229280e+01 ylo yhi
 9.5325923015674618e+00 2.7346676769771977e+02 zlo zhi

Masses

1 14
2 15

Pair Coeffs # lj/cut/omp

1 0.0914 3.95
2 0.1947 3.75

Bond Coeffs # harmonic/omp

1 449.5 1.53
2 449.5 1.53
3 449.5 1.53

Angle Coeffs # harmonic/omp

1 62.0967 114
2 62.0967 114
3 62.0967 114

Dihedral Coeffs # opls/omp

1 1.411 -0.271 3.145 0
2 1.411 -0.271 3.145 0
3 1.411 -0.271 3.145 0

Atoms # molecular

1            1            1      9.47859       13.648      13.6544
2            1            1      8.43852      13.3551      14.7457
3            1            1      8.85479      13.1108       16.102
4            1            1      7.88109      12.6385      17.1155
5            1            1       8.5147      12.2231      18.4913
6            1            1      7.53433      11.7284      19.5703
7            1            1      8.22898      11.0253      20.7455
8            1            1      7.17096      10.7461      21.8773
9            1            1      7.75132      10.1929      23.2388
10            1            1      6.64727      9.85679      24.2279
11            1            1      7.30851      9.54923        25.56
12            1            1      6.20451      8.92681      26.4637
13            1            1      6.72341      8.41049      27.7807
14            1            1      5.63257       8.3358      28.8183
15            1            1      6.30104      7.87649      30.1061
16            1            1      5.32908      7.43308      31.2137
17            1            1       5.8553      6.87912      32.5214
18            1            1      4.69207      6.85001        33.51
19            1            1      5.18897      6.29398      34.8686
20            1            1      4.19836       5.7662      35.8901
21            1            1      4.67936      5.25559      37.2005
22            1            1      3.60903      5.17856      38.3138
23            1            1      4.13205      4.46229      39.5375
24            1            1      3.16935      4.60293      40.7421
25            1            1      3.39666        3.512      41.7782
26            1            1      2.46162      3.62566       42.972
27            1            1      2.86779       2.7462      44.1726
28            1            1      1.91775      2.86963      45.3553
29            1            1      2.31332      1.88142      46.5215
30            1            1       1.7984      2.30159      47.8923
31            1            1      2.02977      1.21206      48.8909
32            1            1      1.03669       1.1912      50.0897
33            1            1      1.50762     0.207976       51.107
34            1            1     0.556076    0.0558603      52.3091
35            1            1      1.09338      25.9414      53.3386
36            1            1     0.437967       26.182      54.7047
37            1            1     0.653032      25.1161      55.7872
38            1            1      30.8857      25.1326      57.0341
39            1            1     0.197001      24.1764      58.0602
40            1            1      30.3392       23.925      59.2283
41            1            1      30.8883      23.1909      60.4202
42            1            1      29.9146      23.0199      61.6004
43            1            1      30.3524      22.4724      63.0211
44            1            1      29.2248      22.1822      64.0567
45            1            1      29.7141      21.7586      65.4295
46            1            1      28.6123      21.1425      66.2136
47            1            1      29.0912      20.5842      67.5372
48            1            1      28.1039      20.7131      68.6956
49            1            1      28.7993      19.8413      69.8066
50            1            1      27.9475       19.622      71.0454
51            1            1      28.2849      18.7381      72.2064
52            1            1      27.3299      18.9698      73.3817
53            1            1      27.6122      17.9319      74.4672
54            1            1      26.7187      18.0316      75.6932
55            1            1      27.2234      17.0878      76.7669
56            1            1      26.3279      16.9685      78.0067
57            1            1      26.8528      15.9539      79.0193
58            1            1       26.136      16.1137      80.3944
59            1            1      26.5399      15.1732      81.4884
60            1            1      25.9349      15.4458      82.8932
61            1            1      25.7921      14.2773      83.8613
62            1            1      25.2759       14.663      85.2716
63            1            1      25.3446      13.4619      86.1711
64            1            1      24.9333      13.5956      87.5826
65            1            1      25.1108      12.4006      88.5309
66            1            1      24.1611       12.586      89.7425
67            1            1      24.3858      11.4782      90.7072
68            1            1      23.5044      11.6829      91.9109
69            1            1       23.909      10.9369      93.1461
70            1            1      23.0428      11.0616      94.3629
71            1            1      23.5319      10.0926      95.4748
72            1            1      22.7202      10.1808      96.7044
73            1            1      23.0728      9.09787      97.7955
74            1            1      22.2362      9.26422      99.0486
75             1             1       22.4062       8.10396       100.071
76             1             1       21.7105        8.2966       101.421
77             1             1       21.9468        7.4127       102.575
78             1             1       21.1303       7.78001        103.81
79             1             1       21.1139       6.68764       104.926
80             1             1       20.6152       7.13403       106.257
81             1             1       20.6307        6.1842       107.456
82             1             1       20.2014       6.77486       108.842
83             1             1       20.3333       5.72738       109.968
84             1             1        19.742       6.30891       111.269
85             1             1       19.9656       5.12902       112.253
86             1             1       19.4626       5.15657       113.706
87             1             1       20.5038       5.66512       114.722
88             1             1       19.8741       5.63288       116.126
89             1             1       20.6863       6.04894       117.331
90             1             1       20.1547       5.82847        118.74
91             1             1        21.156       6.15135       119.758
92             1             1       20.6456       7.03372       120.863
93             1             1       21.5982       7.04767       122.042
94             1             1       21.0583       7.81189       123.301
95             1             1       21.9791       7.76136       124.481
96             1             1       21.2533        8.4089       125.602
97             1             1       22.2523       8.64271       126.781
98             1             1       21.8152       9.46431       128.026
99             1             1       22.7139        9.3816       129.237
100             1             1       22.1761       10.1611       130.471
101             1             1       23.0194        10.013       131.714
102             1             1       22.7363       11.0918       132.806
103             1             1       23.7949        10.948       133.891
104             1             1        23.271       11.7353       135.113
105             1             1       24.1221       11.6688       136.374
106             1             1       23.7544        12.611       137.482
107             1             1       24.7481       12.5008       138.667
108             1             1       24.1267        13.229        139.84
109             1             1       25.2336       13.5989       140.794
110             1             1       24.6303       14.4156       141.985
111             1             1       25.5316       14.3368       143.213
112             1             1       25.1151       15.3644       144.286
113             1             1       25.9469       15.1411       145.546
114             1             1       25.5989       16.0539       146.688
115             1             1       26.4658       15.9852       147.903
116             1             1       25.9514       16.8303         149.1
117             1             1       26.7842       16.7808       150.408
118             1             1       26.3678       17.7598       151.456
119             1             1       27.2992       17.9206       152.652
120             1             1       26.6865       18.6791       153.818
121             1             1       27.6207       18.6302        155.04
122             1             1       27.1553       19.4901       156.175
123             1             1       28.2884       19.6511       157.154
124             1             1       27.7439       20.4328       158.337
125             1             1        28.582       20.2839       159.581
126             1             1        28.258       21.1843       160.794
127             1             1       29.3421       21.2768       161.835
128             1             1       28.9121       22.1029       163.013
129             1             1       29.9864        22.069       164.124
130             1             1       29.3783       22.6434       165.416
131             1             1       30.3958       23.0774        166.47
132             1             1       29.7793        23.313       167.828
133             1             1       30.8007       23.6415       168.882
134             1             1       30.2077        23.971       170.288
135             1             1     0.0929718       24.4475       171.258
136             1             1       30.7051       24.9407       172.618
137             1             1      0.681447       25.4684       173.523
138             1             1      0.242364       25.9278       174.895
139             1             1       1.42179       26.2228       175.822
140             1             1      0.932731       26.6145       177.178
141             1             1       2.06097    -0.0137768       178.164
142             1             1       1.62123      0.557914       179.512
143             1             1       2.70669      0.877422       180.505
144             1             1       2.05837       1.20437       181.812
145             1             1       3.08714       1.74651       182.741
146             1             1       2.49319        2.0999       184.093
147             1             1        3.4603        2.6854       185.123
148             1             1       2.84616        2.9669       186.465
149             1             1        3.8825       3.41951       187.497
150             1             1       3.27733        3.7794       188.866
151             1             1       4.36563       4.25189        189.84
152             1             1         3.847       4.79932       191.159
153             1             1       5.00745       5.00157       192.195
154             1             1       4.46127        5.4789       193.524
155             1             1       5.48857       5.77591       194.576
156             1             1       4.88431       6.37953       195.785
157             1             1       5.95926       6.75115       196.774
158             1             1       5.26316       7.38834           198
159             1             1       6.16772       7.62741       199.158
160             1             1       5.52292       8.37753       200.337
161             1             1        6.4339       8.68969       201.505
162             1             1        5.8952       9.30456       202.775
163             1             1       7.06651       9.60354       203.697
164             1             1       6.62593       9.74071       205.171
165             1             1       7.60066       10.5103       206.095
166             1             1       7.02965       10.9272        207.46
167             1             1       8.04444       11.4376       208.466
168             1             1       7.51957       11.9804       209.796
169             1             1       8.49116       12.4018       210.907
170             1             1       7.85456       12.6206       212.237
171             1             1       8.97505       13.0771       213.197
172             1             1       8.41979       13.3969       214.555
173             1             1        9.4629       13.7656       215.549
174             1             1       8.83293       14.1037       216.929
175             1             1       9.82723       14.4821       218.026
176             1             1       9.21667        15.213       219.242
177             1             1       10.2354       15.4883       220.388
178             1             1       9.81411        16.043       221.721
179             1             1       10.9035       16.2806       222.822
180             1             1       10.3906       16.9273       224.092
181             1             1       11.4437       17.0239       225.189
182             1             1       10.9093       17.7821        226.43
183             1             1       11.9541       17.8015       227.602
184             1             1       11.5712       18.5556       228.898
185             1             1       12.3826       18.4518       230.172
186             1             1       11.9784       19.2858       231.384
187             1             1       12.9964       19.5214       232.507
188             1             1       12.6364       20.4528       233.644
189             1             1       13.6128       20.3043       234.804
190             1             1       13.0841       20.9476        236.06
191             1             1       13.9931       21.4457       237.171
192             1             1       13.4234       21.8979        238.47
193             1             1        14.461       22.1299       239.505
194             1             1       13.9498       22.6948       240.806
195             1             1       15.0102       23.0474       241.923
196             1             1       14.4156       23.4341       243.245
197             1             1       15.3162       23.4958       244.442
198             1             1       14.4918       23.9943       245.618
199             1             1       15.1539       23.5948       246.886
200             1             1       14.3066       23.8908       248.087
201             1             1       14.9788       23.4137       249.369
202             1             1       14.1983       23.4537       250.642
203             1             1       14.9062       22.5666       251.684
204             1             1       14.0584       22.0109       252.765
205             1             1       14.7699       21.9495       254.094
206             1             1       13.8001       21.6633       255.216
207             1             1       14.4221       21.5173       256.589
208             1             1        13.343       20.8937       257.512
209             1             1       13.8523       20.5086       258.913
210             1             1       12.7976       20.0839       259.955
211             1             1       13.3213       19.7914       261.373
212             1             1       12.1302       19.3272       262.247
213             1             1       12.5459       18.8802       263.636
214             1             1       11.4642       18.2548        264.51
215             1             1       11.9347       17.7979       265.911
216             1             1       10.8787       17.6824       266.981
217             1             1        11.492       17.1142       268.277
218             1             1       10.5016       16.8229       269.366
219             1             1       10.9539       16.1051       270.634
220             1             1       9.76749       15.7991       271.623
221             1             1       10.2581       15.0161       272.864
222             1             1        9.3276       14.7407       10.0809
223             1             1       9.85601       14.0961       11.2996
224             1             1       8.80913       14.0941       12.3503
225             2             1       13.5058        16.772       10.0011
226             2             1       12.8075       17.0511        11.331
227             2             1       13.0868       16.0108       12.3523
228             2             1       12.4413        16.171       13.7488
229             2             1       13.1626       15.2965        14.854
230             2             1       12.5038       15.4931       16.2133
231             2             1       12.8644       14.4247       17.3366
232             2             1       12.0682        14.613       18.6329
233             2             1       12.4198       13.5136       19.6912
234             2             1       11.5659       13.7231       20.9287
235             2             1        11.592       12.5594        21.857
236             2             1       10.7768       12.7721       23.1087
237             2             1       11.1725       11.8012       24.1685
238             2             1       10.3929       12.0853       25.4214
239             2             1       10.5482       10.8964       26.3585
240             2             1       9.89273         11.07        27.688
241             2             1       10.2856       10.0492       28.7371
242             2             1       9.53531        10.341       30.0247
243             2             1       9.85562       9.24446       31.0479
244             2             1       9.08031       9.42308       32.3907
245             2             1       9.42427       8.46044       33.5229
246             2             1       8.48028       8.69051       34.7203
247             2             1       8.81357       7.68115       35.8169
248             2             1       7.90683       7.89629       37.0041
249             2             1       8.00934       6.83087       38.0835
250             2             1       7.19896       7.32055       39.3098
251             2             1       7.27452       6.20783       40.3478
252             2             1        6.7815       6.54271       41.7678
253             2             1       6.70017       5.23407       42.6047
254             2             1       6.07235       5.37013       44.0376
255             2             1       6.17777       4.14073       44.9563
256             2             1       5.82464       4.60627       46.3742
257             2             1       5.85569       3.43388       47.4124
258             2             1       5.50158       3.83151       48.8522
259             2             1       5.51125       2.68264       49.8256
260             2             1       4.86127       2.91256        51.246
261             2             1        4.8479       1.62628       52.0378
262             2             1       4.33322       2.00946       53.4441
263             2             1       4.38769      0.810881       54.4256
264             2             1       4.05621       1.15065       55.9065
265             2             1       3.78465    -0.0904563       56.7315
266             2             1        3.7082      0.178187       58.2734
267             2             1       3.57923       25.8297       59.1274
268             2             1       3.12825       26.1604       60.5931
269             2             1       3.15176       24.9344       61.5347
270             2             1       2.65393       25.2315       62.8992
271             2             1       2.41467       24.0555       63.8208
272             2             1       1.66913       24.4012       65.0801
273             2             1        1.9992       23.3584       66.1324
274             2             1        1.1126       23.3734       67.3079
275             2             1       1.71459       22.5871        68.475
276             2             1      0.934883       22.5686       69.8193
277             2             1       1.39139        21.596       70.8646
278             2             1      0.216023       21.4951       71.8887
279             2             1      0.585614       20.8684       73.2539
280             2             1       30.6192        20.369       74.1841
281             2             1      0.197872       19.8417       75.4565
282             2             1       30.4326       19.2865       76.5878
283             2             1    -0.0590694       18.6907       77.7576
284             2             1       30.0706       18.6346       78.9217
285             2             1       30.5975       17.8609       80.1542
286             2             1        29.625       17.8482       81.3231
287             2             1       30.1518       17.2538       82.5988
288             2             1       29.1508        17.219       83.7976
289             2             1       29.7403       16.4406        85.014
290             2             1       28.6844       16.3242       86.1688
291             2             1       29.2659       15.4481       87.2723
292             2             1       28.2744        15.266         88.43
293             2             1       28.7812       14.4174       89.5838
294             2             1       27.7877       14.3791       90.7232
295             2             1       28.1799       13.6293       91.9806
296             2             1       27.0369       13.7166       92.9916
297             2             1       27.4097       12.9317       94.2784
298             2             1       26.4799       12.9352       95.5083
299             2             1       26.9671       12.0507       96.6543
300             2             1       25.9626       11.7754       97.7625
301             2             1       26.5048       10.9933       98.9224
302             2             1       25.5567       11.1429       100.058
303             2             1       25.8983        10.427       101.368
304             2             1       24.8712        10.408       102.444
305             2             1       25.3857       9.57201       103.578
306             2             1       24.5545       9.42403       104.815
307             2             1       25.0569       8.53869       105.991
308             2             1       24.2655       8.73324       107.324
309             2             1       24.6282        7.8742        108.54
310             2             1       23.6587       7.85745       109.759
311             2             1       24.1093       7.21627       111.088
312             2             1       23.3845       7.68108       112.339
313             2             1       24.0395       7.02414       113.514
314             2             1       23.6295       7.72217       114.793
315             2             1       24.4536       7.32812       116.035
316             2             1       23.9522       8.22329       117.155
317             2             1       24.7041       7.94248       118.459
318             2             1       24.1976       8.72627       119.668
319             2             1       25.0198       8.60725       120.925
320             2             1       24.5283       9.42117       122.066
321             2             1       25.4387       9.37357       123.261
322             2             1       24.8563       10.1037       124.466
323             2             1       25.8132       10.0547       125.683
324             2             1       25.2101       10.8166       126.834
325             2             1       26.2427       11.1964       127.902
326             2             1       25.7306       11.9453       129.075
327             2             1       26.8038        12.247       130.115
328             2             1       26.2316        12.789       131.415
329             2             1        27.322       13.0166       132.463
330             2             1       26.7385       13.2373       133.867
331             2             1       27.7895       13.6119       134.802
332             2             1       27.2513       13.7843        136.27
333             2             1        28.226       14.5803       137.116
334             2             1       27.6748       14.8487       138.501
335             2             1       28.5433       15.7171       139.386
336             2             1       28.1102       15.7705       140.819
337             2             1        29.162       16.5428       141.657
338             2             1       28.7468       16.6722       143.129
339             2             1       29.7266       17.4599       144.001
340             2             1       29.2557       17.6606       145.471
341             2             1        30.133       18.5353       146.417
342             2             1       29.6138       18.6134        147.85
343             2             1       30.6489        18.671       148.939
344             2             1       30.1059       19.2014       150.239
345             2             1    -0.0142319       19.7202       151.239
346             2             1        30.519        20.349       152.491
347             2             1      0.338564       20.7155       153.574
348             2             1       30.8132       21.0363       154.895
349             2             1      0.671668        21.672       155.835
350             2             1      0.137504       22.0078        157.21
351             2             1       1.14364       22.4414       158.282
352             2             1      0.562582       23.1947       159.512
353             2             1       1.64377       23.3407       160.575
354             2             1       1.13051       23.9112       161.902
355             2             1       2.26058       24.1374       162.921
356             2             1       1.77889       24.7293       164.248
357             2             1        2.7591       24.6963       165.464
358             2             1       2.16392        25.449       166.691
359             2             1        3.1375       25.2864       167.864
360             2             1       2.87985         26.24       168.988
361             2             1       3.97852       26.1686       170.036
362             2             1       3.67282    -0.0129193       171.362
363             2             1       4.72068     0.0554601       172.484
364             2             1       4.10819      0.903103       173.606
365             2             1       5.08986      0.960998       174.837
366             2             1        4.7157       1.79804        176.04
367             2             1       5.79707       2.01755       177.062
368             2             1       5.27093       2.73827       178.258
369             2             1       6.28148       2.82761       179.389
370             2             1       5.71577         3.599       180.604
371             2             1       6.72839       3.54351       181.722
372             2             1       6.24845       4.32889       182.969
373             2             1       7.22507        4.1515       184.137
374             2             1       6.66477       4.51664       185.448
375             2             1       7.73342        4.9638       186.403
376             2             1       7.18943        5.6161       187.646
377             2             1       8.28185       6.00686       188.615
378             2             1       7.78369       6.57982       189.938
379             2             1       8.86865       7.14295       190.884
380             2             1       8.30041       7.68123       192.222
381             2             1       9.27551       7.81391       193.398
382             2             1       8.70614       8.44874       194.695
383             2             1       9.53188       8.61112       195.999
384             2             1       8.79552       9.32028       197.138
385             2             1       9.81967       9.46598       198.232
386             2             1       9.27674       10.2049        199.46
387             2             1       10.3742       10.3135       200.531
388             2             1       9.83885       10.9615       201.793
389             2             1       10.9865        11.222        202.74
390             2             1       10.4304       11.5671       204.119
391             2             1       11.5062       12.1601       205.027
392             2             1       10.9373       12.6843       206.361
393             2             1        11.997       13.1501       207.419
394             2             1       11.4536        13.716       208.753
395             2             1       12.4721       13.8129       209.903
396             2             1        11.993        14.492       211.165
397             2             1       13.0694       14.6654        212.28
398             2             1       12.5296       15.5232       213.412
399             2             1       13.3475       15.4144       214.669
400             2             1       12.8717       16.1224       215.965
401             2             1       13.8678       16.1922       217.073
402             2             1       13.2353        16.609       218.462