LAMMPS data file via write_data, version 23 Jun 2022, timestep = 11111117

9706 atoms
2 atom types
9690 bonds
3 bond types
9674 angles
3 angle types
9658 dihedrals
3 dihedral types

0 36.89775039 xlo xhi
0 26.67072 ylo yhi
11.005666689127466 225.7459377109182 zlo zhi
0 6.756196499662725 0 xy xz yz

Masses

1 14
2 15

Pair Coeffs # lj/cut/omp

1 0.0914 3.95
2 0.1947 3.75

Bond Coeffs # harmonic/omp

1 449.5 1.53
2 449.5 1.53
3 449.5 1.53

Angle Coeffs # harmonic/omp

1 62.0967 114
2 62.0967 114
3 62.0967 114

Dihedral Coeffs # opls/omp

1 1.411 -0.271 3.145 0
2 1.411 -0.271 3.145 0
3 1.411 -0.271 3.145 0

Atoms # molecular

1 17 1 6.453584117914191 0.766589004599238 17.77488740815435 0 0 0
2 17 1 7.8251939167070965 1.077109669700161 18.35257961440996 0 0 0
3 17 1 8.018486304722632 0.6838031129257062 19.807775265289983 0 0 0
4 17 1 9.483422236752913 0.8056426319781971 20.358141583907493 0 0 0
5 17 1 9.800920470106961 0.19928928959639589 21.75880388714811 0 0 0
6 17 1 10.997793775672852 0.8898782311847607 22.47370933710991 0 0 0
7 17 1 11.032548241935391 0.5600855139741843 23.900716420121604 0 0 0
8 17 1 12.38984062041793 0.7767999797341673 24.546249749664092 0 0 0
9 17 1 12.36650529507524 0.5018333239283075 26.058360309810027 0 0 0
10 17 1 13.734244189794527 0.6865424596066516 26.727309757105047 0 0 0
11 17 1 13.776657286489446 0.6417391723849747 28.32200073698292 0 0 0
12 17 1 15.135297268380029 0.4797368743820782 28.919351282433983 0 0 0
3858 30 1 16.625294060831077 14.664886069007071 19.205507700429735 0 0 0
8507 56 1 2.542474400394449 13.923522165510471 23.92237719853557 0 0 0
232 3 1 17.351293031911478 2.5068295971386054 25.661932986998067 0 0 0
9495 63 1 1.786835224835512 25.414513548463077 16.653879834041057 0 0 0
13 17 1 15.341884894108317 0.6692150139080634 30.44737981717088 0 0 0
8419 40 1 0.17765930493447213 12.564469033900053 14.57149339741704 1 0 0
445 3 1 10.001695650645395 3.132004068750315 13.996440024471285 0 0 0
9508 63 1 10.958238461445715 24.79733845904685 30.6191731345363 0 0 0
222 17 1 5.06303801139655 0.9604413089848036 14.230460163633298 0 0 0
223 17 1 5.002476507963279 0.7263769957422089 15.70943679347885 0 0 0
224 17 1 6.336764618786414 1.1165972133820308 16.283228019983298 0 0 0
225 3 1 12.524561575718304 2.9833301291954823 18.26537637094699 0 0 0
226 3 1 12.700210251955955 2.8167618418620206 19.7838122900632 0 0 0
227 3 1 14.063451815026653 3.2321163925139684 20.289565216799105 0 0 0
228 3 1 14.170912736999975 3.0730230123238553 21.7629470082721 0 0 0
229 3 1 15.52067028036055 3.4258745955387067 22.395782815692172 0 0 0
230 3 1 15.656678687417562 2.9584587245798573 23.83894961549091 0 0 0
231 3 1 16.942299975065577 3.3935732867108763 24.499095801318948 0 0 0
1063 8 1 7.16179695107717 11.667779073696723 11.515985093783938 0 0 1
2138 17 1 18.25343570224749 25.296523583752574 26.739278647184808 0 0 0
8436 40 1 12.811942486040573 11.427112510902884 32.105011416842636 0 0 0
462 3 1 17.200565458757637 4.593681642297971 31.789338493583443 0 0 0
3411 26 1 13.766387148226833 10.451316961370267 14.493915519917318 0 0 0
3852 39 1 12.21596988051511 14.969786197494452 12.934989844422647 0 0 1
1311 12 1 18.834713618474247 15.951388766079905 28.2289554726998 0 0 0
8665 62 1 2.645438242861068 16.570596136762 17.664423932250568 0 0 0
1919 63 1 16.776347444471348 22.557642919273093 32.096378905818405 0 0 0
3856 39 1 15.164748688525883 14.97902264153236 17.097893527067924 0 0 1
448 3 1 11.127052587339968 2.9154201908154427 17.711948988758035 0 0 0
449 3 1 7.972849780241193 5.200497791081482 18.22656988257236 0 0 0
450 3 1 8.130807985454899 4.597456983303427 19.63685501982752 0 0 0
451 3 1 9.491089589620948 4.974065812274364 20.210126054937867 0 0 0
452 3 1 9.502396158174793 4.635556122579498 21.69594996206724 0 0 0
453 3 1 10.731784050448303 5.024501627468113 22.484795822757803 0 0 0
454 3 1 10.6021845766165 4.741030502377151 23.99511302935361 0 0 0
455 3 1 12.04280088956466 4.852710188936118 24.519364193365156 0 0 0
456 3 1 12.310479807369113 4.679610777979373 26.009478174701414 0 0 0
457 3 1 13.664861403959147 4.992139384492886 26.576213377474467 0 0 0
458 3 1 13.815106702883217 4.635566231704393 28.074901218862045 0 0 0
459 3 1 15.281563320681778 4.867301668466128 28.44822090947592 0 0 0
8128 56 1 3.524443932611342 9.408615876944827 25.86576559466976 0 0 0
2351 16 1 9.717369904790974 25.342945873332372 15.524518406288678 0 0 1
219 17 1 2.558561594416581 0.9736026423697867 11.271798456808265 0 0 0
1219 9 1 4.206448122082559 13.801692894248248 13.618770638492322 0 0 0
443 53 1 8.652605889453264 3.1566964515502542 11.92729071625577 0 0 1
8664 62 1 1.5305482004286444 17.316876319105095 16.997431800030757 0 0 0
984 47 1 4.303954686896208 9.455040618862357 13.361447205444602 0 0 0
4785 35 1 16.46025001126199 24.95470333527183 11.395439529608472 0 0 1
524 3 1 5.106148121823176 5.695433849154298 14.12570677884519 0 0 0
525 3 1 5.083024663221996 5.1312942771067895 15.515178667781594 0 0 0
526 3 1 6.439841382017724 5.349077399288629 16.07625471392942 0 0 0
527 3 1 6.634238744132146 4.901660161208315 17.538513023033644 0 0 0
686 4 1 10.387273187459648 7.062869990776535 15.532148531939821 0 0 0
687 4 1 10.699212101646532 7.6625755609577 16.870622079802537 0 0 0
688 4 1 12.022165627038499 7.248369584129856 17.43878802226168 0 0 0
689 4 1 12.551239178268162 8.055143954526436 18.564010525878693 0 0 0
690 4 1 13.168412317327775 7.249646439524951 19.74439532619196 0 0 0
691 4 1 13.89715554237539 8.103886286338934 20.778883129860684 0 0 0
692 4 1 14.697801396157939 7.166614048850019 21.730350486201466 0 0 0
693 4 1 15.889297228474422 7.732549814882731 22.42482262780279 0 0 0
3860 30 1 17.933550801107298 14.430075277102578 21.33406262096151 0 0 0
1304 10 1 3.0493034392017733 14.471904284510218 12.885769412482706 0 0 1
4038 46 1 16.289801363519604 19.269508620895014 19.19772782597203 0 0 0
2805 33 1 17.631421563859398 3.5420723565232555 12.0569969058979 0 0 1
3857 39 1 15.817157958643959 13.990194217486996 18.09278777076971 0 0 1
447 3 1 11.272544579451415 3.3221458535553343 16.230308367413343 0 0 0
8126 56 1 2.266016045651069 9.61641278288275 23.662761646506013 1 0 0
3186 41 1 16.941647624686773 7.487410804846932 11.452495894820368 0 0 1
763 4 1 9.043373924564401 7.272494012897627 13.39126669250405 0 0 0
764 4 1 9.24748395159092 7.78915994268618 14.815991786894973 0 0 0
765 47 1 8.081214549476181 9.993758204985035 18.747852323561094 0 0 0
766 47 1 9.037540356471075 9.126703321464372 19.579158195108093 0 0 0
767 47 1 9.522196007088095 9.78942569272703 20.802398360479025 0 0 0
768 47 1 10.67080943984573 9.059383420450391 21.490034110823117 0 0 0
769 47 1 10.938870921280722 9.55889676746444 22.933409696964585 0 0 0
770 47 1 12.045947016011196 8.873597664208445 23.709689170412197 0 0 0
771 47 1 12.131230692571735 9.475117226201707 25.104097220772772 0 0 0
772 47 1 13.370709178434971 8.891269917475004 25.82897521758475 0 0 0
773 47 1 13.49890303490347 9.243248211218134 27.26631198659974 0 0 0
774 47 1 14.738903905157139 8.788167657131043 27.971238550606973 0 0 0
775 47 1 14.969253124771623 9.367142621831345 29.366555626283613 0 0 0
694 4 1 16.089090113057146 7.177792403504487 23.822090007407674 0 0 0
762 4 1 7.810888387015181 7.8448279883363945 12.668627587434292 0 0 0
4787 35 1 17.63330545297159 25.050986977662507 13.64485904020104 0 0 1
695 4 1 17.179786774690143 7.760910332633247 24.732356425065383 0 0 0
3854 39 1 13.782211464220161 15.06046867382095 14.941467991425558 0 0 1
4036 46 1 15.082055896564755 19.3886447997019 16.795706332283068 0 0 0
2126 15 1 4.605497329433833 23.809837576959495 14.166303538686407 0 0 1
7902 9 1 2.030817443488909 7.988260040008981 16.392436523752497 0 0 0
985 47 1 4.842764281701564 9.918575183991237 14.766280127068104 0 0 0
986 47 1 5.936585879633321 9.096001378978952 15.46904472456579 0 0 0
987 47 1 6.431289963019927 9.74226132999928 16.770859624953417 0 0 0
988 47 1 7.5009905108407615 9.045151093879937 17.65014075746329 0 0 0
1068 4 1 14.381560909825074 11.851238562291986 21.69876357592434 0 0 0
1069 4 1 14.870560953382636 12.45983765618154 22.93508298579132 0 0 0
1070 4 1 15.774040661789702 11.597379538193728 23.793010827141494 0 0 0
1910 59 1 8.21565562191386 20.618335484973162 13.489950668812439 0 0 0
8889 59 1 1.1329156445803668 18.430320822548378 23.456071848329813 1 0 0
761 4 1 7.5419441100706885 7.0461796540006825 11.399789581522127 0 0 0
8678 62 1 11.559764405626627 16.55106722320444 31.40782450853007 0 0 0
777 47 1 16.75131882550401 9.517689531743795 31.22300729849654 0 0 0
523 3 1 3.905407124166857 5.244234392360197 13.29105497129485 0 0 0
7705 1 1 8.292001798951134 4.645172498067884 32.37452948593922 0 0 0
7701 1 1 5.088028676067058 4.77624346096505 28.334596762207173 0 0 0
8510 56 1 4.140190455369369 13.994514047472538 27.547635723907096 0 0 0
2350 16 1 9.224752923166324 26.027693777609915 14.269636080926343 0 0 1
2353 16 1 11.231815166950232 25.22270975807438 17.611301549909655 0 0 1
1143 4 1 11.661962300297704 12.018669396297957 17.432229382236535 0 0 0
1144 4 1 12.324836515569322 12.707552677093682 18.61792056052269 0 0 0
1145 4 1 13.074060782578082 11.841101663959886 19.56890143610558 0 0 0
1146 4 1 13.26970880866022 12.47610305440539 20.96305742256972 0 0 0
1147 9 1 8.954371227459268 14.431245916660265 21.171973427801127 0 0 0
1148 9 1 9.792282136266872 13.475920872155093 21.97766766093733 0 0 0
1149 9 1 10.421002922706153 14.136165335328101 23.142792303527813 0 0 0
1150 9 1 11.399653527009214 13.322966526568042 23.938326785295764 0 0 0
1151 9 1 11.806197626475406 14.144747698043918 25.2054219595289 0 0 0
1152 9 1 12.796784684375188 13.440663944378944 26.06152052526938 0 0 0
1153 9 1 13.3232260666779 14.341255545474809 27.17121904921913 0 0 0
1154 9 1 14.374839376712854 13.584220817561212 28.030262619121597 0 0 0
1303 10 1 3.0043093145560684 14.243168781708341 11.384661422123024 0 0 1
5412 40 1 2.343697744487629 6.914065948411862 29.873311263989216 1 0 0
221 17 1 3.82008139525579 0.7172930082355268 13.378643954043941 0 0 0
8509 56 1 4.075176309065575 13.875878081015397 26.027699655684753 0 0 0
8420 40 1 1.225529271569968 11.843965673642437 15.334084315322507 0 0 0
778 47 1 17.999346174218477 8.876162450646158 31.868943986942288 0 0 0
4252 6 1 15.944053793656012 20.667854161362268 11.660578780480122 0 0 0
9500 63 1 5.167740763461797 24.694662207231282 22.225598012535606 0 0 0
8670 62 1 5.867408996662535 16.448754478800907 23.30670447359723 0 0 0
1220 9 1 4.489646205730024 14.479605682103061 14.903441939737704 0 0 0
1221 9 1 5.552466173848474 13.849462161205235 15.852666902009407 0 0 0
1222 9 1 5.781195919438733 14.617675273606093 17.12154592511437 0 0 0
1223 9 1 6.9040761957670505 13.887093313628323 17.881815061722396 0 0 0
1224 9 1 7.326262489079941 14.60795810998961 19.158757648642734 0 0 0
1225 9 1 8.435755513067797 13.843665177924242 19.882003568226047 0 0 0
1305 12 1 14.17084715476433 16.131354156330886 22.262264668102922 0 0 0
1306 12 1 14.945561582900297 16.891413316804194 23.36140956734345 0 0 0
1307 12 1 15.850761455379368 16.065889956769183 24.205364449896628 0 0 0
1308 12 1 16.379856698448066 16.91997179992025 25.40784815648714 0 0 0
1909 59 1 7.299924562277054 21.369295913260252 12.531338257542094 0 0 0
3866 31 1 17.81184509393992 16.143470343256844 13.889564552563321 0 0 0
4040 46 1 17.912391791145023 19.12353770711691 21.264725856083707 0 0 0
8896 59 1 6.4726388457488095 17.87882241929861 30.619329670991924 0 0 0
1545 43 1 16.886053971867447 18.099261757959006 32.31367232807871 0 0 0
5858 13 1 2.247164158264679 11.615560960457767 31.41637758852263 1 0 0
7242 52 1 2.0202339806303113 26.610363995596128 24.099733365074016 0 -1 0
1541 43 1 13.709380479548194 18.064941059555483 28.4480574621113 0 0 0
9281 62 1 3.2069162228597308 22.05129739278087 26.577545485243856 0 0 0
3855 39 1 14.619943917006028 14.264801336921076 15.867373121261839 0 0 1
1525 12 1 11.35024722615826 16.178243009340488 18.07908617969426 0 0 0
1526 12 1 12.235570415932655 17.064737412907604 18.952490085696073 0 0 0
1527 12 1 12.95753220685622 16.262134077265472 20.093542200230303 0 0 0
1528 12 1 13.794178924286044 17.014856663816705 21.112484567295084 0 0 0
1529 43 1 4.979693800982111 18.564244773868417 15.400551770703068 0 0 0
1530 43 1 5.748244131810159 19.289303636185924 16.488616611645078 0 0 0
1531 43 1 6.468955184022206 18.40475381640614 17.524387491680837 0 0 0
1532 43 1 7.4417032866376776 19.101908453321666 18.43213509126588 0 0 0
1533 43 1 8.090719891020063 18.235521084117575 19.575600600361874 0 0 0
1534 43 1 9.056553276672599 19.001852485752632 20.51240305974868 0 0 0
1535 43 1 9.534379149936262 18.379296443062557 21.82260343430535 0 0 0
1536 43 1 10.616963322032358 18.961018310184446 22.697738402620246 0 0 0
1537 43 1 10.97912241277279 18.1634055552392 23.947797375886942 0 0 0
1538 43 1 11.902366125644782 18.75546514406384 24.98466633553754 0 0 0
1539 43 1 12.278522671339656 18.0237684968736 26.222034124977434 0 0 0
1540 43 1 13.206672663151128 18.770735086461944 27.174150303238534 0 0 0
1067 8 1 10.11871559676117 12.055360603217343 15.437782813178295 0 0 1
1066 8 1 9.398913004264665 12.889779133410173 14.417605216791314 0 0 1
2365 29 1 17.49059385643225 0.7508667572087356 18.360855321498974 0 0 0
1072 4 1 17.661062234783696 11.62501701567811 25.621189406130583 0 0 0
522 3 1 3.843261848061425 5.4118081910610165 11.789871167753367 0 0 0
2127 15 1 5.080484674618399 23.032958265524314 15.341071912934787 0 0 1
1519 11 1 6.96131428847648 16.32118921028919 11.79894629245279 0 0 1
7697 1 1 2.0196687650685283 5.038668515468035 24.271270901948558 0 0 0
2817 30 1 18.536792284097444 5.6127091716967366 20.274053367074703 0 0 0
2124 15 1 3.086520615503576 23.766502590886425 12.1075146981284 0 0 1
1752 43 1 4.401135935617122 19.355647787891225 14.268623194718426 0 0 0
1832 59 1 8.759119270986364 21.545639652804454 14.582016708215205 0 0 0
1833 59 1 9.713484334949973 20.769534117788474 15.450333829185805 0 0 0
1834 59 1 10.369424983802745 21.603851255552573 16.561852636876527 0 0 0
1835 59 1 11.321141236524772 20.79305802758999 17.411362788538213 0 0 0
1836 59 1 11.854402796440553 21.54251086012632 18.621637705613622 0 0 0
1837 59 1 12.718627514882746 20.72236036407408 19.574240599168718 0 0 0
1838 59 1 13.297022599265121 21.484830058439456 20.768317168090938 0 0 0
1839 59 1 14.057339824404401 20.543331825566774 21.700708480636415 0 0 0
1840 59 1 14.721852367217954 21.3521014042429 22.827030802015244 0 0 0
2582 29 1 11.686328504012824 0.16003437945308088 11.346708806456684 0 0 0
2348 16 1 7.937210375150998 25.563285684256375 12.052346862822276 0 0 1
1071 4 1 16.404234457237102 12.298830455851176 25.023779230044212 0 0 0
8129 56 1 3.657977134350914 9.689096651267196 27.3531778571845 0 0 0
5028 64 1 1.5855029582955509 3.05510323198517 29.207384813083404 1 0 0
5414 40 1 3.6642596024883582 7.0426288279143225 32.05373385592008 1 0 0
7901 9 1 1.271512545091038 7.207827004169055 15.323770748570777 0 0 0
4255 6 1 18.391217430106693 21.377496627083538 14.558359488874572 0 0 0
442 53 1 7.365876561441605 3.5769801102023395 11.300955162884447 0 0 1
1911 63 1 10.778406141753477 22.70761808364266 23.932038544224945 0 0 0
1912 63 1 11.626168737323892 23.454619661879395 24.997819064295843 0 0 0
1913 63 1 12.099971128349344 22.481027706972036 26.077539752728384 0 0 0
1914 63 1 13.315979872254863 22.952073585727188 26.85726548623283 0 0 0
1915 63 1 13.75977285851751 22.25296581520428 28.175276186759465 0 0 0
1916 63 1 14.807059544937648 23.027485537973792 28.969554270428485 0 0 0
1917 63 1 15.470513329253336 22.237770102094665 30.068354487500734 0 0 0
1918 63 1 16.559470652701147 23.122736960713272 30.746868266651887 0 0 0
7247 52 1 5.963354044580131 0.9406583568711012 29.26662642229965 0 0 0
8677 62 1 10.765016600524755 15.645097163632066 30.502271709325974 0 0 0
7241 52 1 1.8668542168769562 0.8113728075019382 22.837396699329553 0 0 0
2806 20 1 18.184544061983168 2.754737074188363 13.280869399476707 0 0 0
5855 13 1 0.599108960309475 11.910771594039304 27.77684903597906 1 0 0
3410 26 1 12.882028318486231 9.547699031849854 13.70590165716356 0 0 0
1749 43 1 2.1145350834067993 18.105629557737757 11.41533907820364 0 0 0
9507 63 1 10.513177489532602 25.416750897844036 29.32357660011402 0 0 0
444 3 1 8.640751080546693 3.207405944876165 13.388226383223842 0 0 0
2129 63 1 6.6593983505863665 22.86857490157282 17.442668844675346 0 0 0
2130 63 1 7.39825569074654 23.62381370686659 18.483620983814486 0 0 0
2131 63 1 8.235114475389203 22.760279955779946 19.480061590928653 0 0 0
2132 63 1 8.896440444474282 23.502390042822046 20.69175627670316 0 0 0
2133 63 1 9.267776832348932 22.630284881463997 21.842822841420393 0 0 0
2134 63 1 9.959036330514861 23.495218497816314 22.873952703103182 0 0 0
2135 17 1 15.510176537432828 25.264188864847533 23.999731691309478 0 0 0
2136 17 1 16.877722460082136 25.324569086671037 24.76002433995975 0 0 0
7250 52 1 8.11740270958834 0.4054900506657275 32.384097778321006 0 0 0
7471 5 1 11.840630722720087 3.2622336071380404 30.746636079151312 0 0 0
3409 24 1 12.371011928407032 10.307244702244583 12.574978390054424 0 0 1
7900 9 1 0.5519301733807568 7.988082340953675 14.298086654017109 0 0 0
2359 29 1 12.933476097279147 0.8265343844916688 11.953440027879873 0 0 0
9284 62 1 5.9434294633440645 22.69404469281658 29.396020267230604 0 0 0
7915 9 1 11.2159648339439 6.997788799918714 29.879144561316995 0 0 0
9279 62 1 1.6594896278338596 22.310389652508455 24.60707861094625 0 0 0
4411 38 1 12.707866350509505 22.8104694067994 12.623185726162859 0 0 0
9282 62 1 4.50361699749611 22.33055300526107 27.282658125614144 0 0 0
1543 43 1 15.34113813185265 18.05049172755559 30.275600922365552 0 0 0
2354 17 1 12.520060615453348 25.67956435381069 18.3096831925209 0 0 0
2355 17 1 12.841534935513073 24.97296907751418 19.579347661694083 0 0 0
2356 17 1 14.041653297068681 25.626608175816752 20.314026001868484 0 0 0
2357 17 1 14.205480354843067 25.16995305026481 21.770568631464535 0 0 0
2358 17 1 15.48079027003369 25.4718792294421 22.512202805274796 0 0 0
4032 46 1 11.994451401502669 19.250723784373207 12.735910539299606 0 0 0
8506 56 1 1.1979300951449086 14.428222073569021 23.270666384240453 0 0 0
2361 29 1 14.589445782475648 0.7711931295268475 14.0549327642441 0 0 0
2362 29 1 14.781874934954011 0.5038622569314601 15.528749719724306 0 0 0
2363 29 1 16.21389147977928 0.6790772334547763 16.151457912700195 0 0 0
2815 30 1 16.764827191309834 5.621913476068694 18.407575486246234 0 0 0
9186 61 1 3.1159741233564557 21.0703148340255 18.615507153431658 0 0 0
1310 12 1 18.059968228606483 16.838823866282084 27.370601215466323 0 0 0
8669 62 1 5.463061612772761 16.07076586819733 21.918661563228596 0 0 0
8672 62 1 7.379557572155959 16.206206037428135 25.265471611243477 0 0 0
1750 43 1 2.8370879448532933 19.04865090832771 12.325409326587316 0 0 0
1155 9 1 14.936258617599984 14.41170952022514 29.18498683327815 0 0 0
776 47 1 16.36978192990034 8.840813927550547 29.906084933511476 0 0 0
7248 52 1 6.377197987722397 0.26712082849680335 30.551689620154903 0 0 0
3636 29 1 16.157383295178487 11.507091459323592 12.060646871690349 0 0 0
4039 46 1 17.18010312293254 18.476506767163087 20.100219964024166 0 0 0
2809 30 1 12.194984403671446 5.51386550500852 12.23716420967939 0 0 0
2810 30 1 13.382127124377481 4.971873523227209 13.030064950562046 0 0 0
2811 30 1 13.566088322222523 5.438101891428256 14.459906991119812 0 0 0
2812 30 1 14.911185186716828 5.137444617879379 15.023876190041236 0 0 0
7704 1 1 7.7000938004859005 5.254356195572731 31.140503806242585 0 0 0
9189 61 1 4.5015713521155485 20.57614682792479 22.22962348837624 0 0 0
1842 59 1 16.462932311454644 21.375828535199755 24.71905084264031 0 0 0
7465 5 1 7.398782075574172 3.3222796727713004 24.853677046020174 0 0 0
6257 42 1 2.0354218029952187 16.125913862231624 31.701201709663746 0 0 0
3865 31 1 16.619022064120873 16.821136138457778 13.060569938196682 0 0 0
9193 61 1 7.244649554568026 19.905051837343667 26.38539211705236 0 0 0
2349 16 1 8.174286543701276 25.172110434816208 13.540360170103378 0 0 1
3189 26 1 15.446606631936861 10.282216387594303 16.561461366939174 0 0 0
3190 26 1 16.104574415876154 9.344552932153087 17.535701184280978 0 0 0
3191 26 1 16.839562605025645 10.053672025721939 18.66736226443362 0 0 0
7700 1 1 4.679351436020201 5.595502640291684 27.140163643808638 0 0 0
8663 62 1 0.9670163502146445 16.64303928412579 15.747889243821025 1 0 0
233 3 1 18.67206349813142 2.9421496369557802 26.379864343725117 0 0 0
7066 23 1 1.4931476202129266 25.187474569686998 28.896052888786993 1 0 0
7696 1 1 1.6689592310430459 5.852164621222043 23.108925935559554 0 0 0
8892 59 1 3.621658805651688 17.776639747301505 26.38329824378699 0 0 0
3412 26 1 14.294861599634064 9.755574104432894 15.751706654446561 0 0 0
1524 12 1 10.617927205600383 17.022700726024848 17.00921698307542 0 0 0
7470 5 1 10.975934459538129 2.410136030299936 29.83394666227971 0 0 0
7243 52 1 3.205963281842187 0.4902681805797697 24.96855554331671 0 0 0
5856 13 1 0.674407130102701 11.60044888742414 29.292029691411468 1 0 0
6688 48 1 1.806846906592782 19.932634812344983 30.513875613342524 1 0 0
8124 56 1 1.1061351015877263 9.558170084078704 21.323649240273387 1 0 0
4786 35 1 17.487805415934435 25.64709502263955 12.25281370919115 0 0 1
1841 59 1 15.598137853797821 20.566042576299306 23.85119354255422 0 0 0
3414 29 1 17.632959147145307 11.646815110912524 14.135140466215065 0 0 0
9182 61 1 0.2264883838487617 21.37939017209184 14.364917972608914 1 0 0
1843 59 1 17.09663078534193 20.52733707929971 25.832334358165035 0 0 0
8668 62 1 4.429298044263304 16.91521843519448 21.17819927450443 0 0 0
2816 30 1 17.85259128383506 4.864919346213228 19.187350300306846 0 0 0
220 17 1 3.806640961410305 1.383886037966545 12.032479831415781 0 0 0
8671 62 1 6.990032123345622 15.558563640753741 23.944173624231954 0 0 0
8131 56 1 5.282038141736413 9.813539642236856 29.35809190845729 0 0 0
1064 8 1 7.7417517820064266 12.629205131287152 12.528626245988644 0 0 1
4415 38 1 15.6454635951604 23.34708408190076 16.690432325974538 0 0 0
460 3 1 15.649847884817982 4.728383941304222 29.92921627142107 0 0 0
7244 52 1 3.377125971999055 26.58292076063634 26.360721570950496 0 -1 0
9187 61 1 3.153545974103165 20.968309807503722 20.17077111403512 0 0 0
2360 29 1 13.24003441990173 0.36127874053077547 13.410588938302809 0 0 0
8513 56 1 6.957715972105416 13.810031533319334 30.309472074449793 0 0 0
5413 40 1 2.8469179188163922 7.772498737224993 31.028562708533975 1 0 0
2366 29 1 17.60047486218279 0.7996517250670734 19.86458562443886 0 0 0
234 3 1 18.662113413750554 2.3791795862169542 27.82578876776765 0 0 0
8894 59 1 4.795446721583816 17.781027261997377 28.62290610534827 0 0 0
3188 41 1 18.312224038634035 7.689945111154397 13.499144069706269 0 0 1
1157 9 1 16.260847424821787 14.312908694821534 31.188851745650446 0 0 0
4254 6 1 17.470793118663966 20.5536809105567 13.652857906827064 0 0 0
983 47 1 3.2806152257342975 10.292629777330689 12.549621421888016 0 0 0
2352 16 1 10.890010383403899 25.95749086807636 16.281242117544394 0 0 1
5411 40 1 1.472552506659643 7.6455594131107265 28.87671356641616 1 0 0
3859 30 1 17.389511609586847 13.684940536093144 20.11575812028185 0 0 0
7916 9 1 11.573591503672011 7.696215350313521 31.283153501091483 0 0 0
9285 62 1 6.17017386073887 22.45258596205851 30.90051743117892 0 0 0
4412 38 1 12.754412781926316 22.88775738040976 14.112142673164511 0 0 0
4413 38 1 14.136933756337314 23.130645970300012 14.620417375219638 0 0 0
4414 38 1 14.30269846082713 22.80423120236272 16.09799904732203 0 0 0
1544 43 1 16.604513873457908 18.67306877871276 30.87278959083264 0 0 0
696 4 1 17.616641934999635 6.991366566229975 25.90989923841927 0 0 0
8679 62 1 12.29947051725037 15.662800407208994 32.41000240631361 0 0 0
1065 8 1 8.815194380785822 11.895435211488405 13.393897276740145 0 0 1
1908 59 1 6.607332318271013 20.498148675450178 11.457964435702946 0 0 0
9192 61 1 7.1441376299536445 20.601835597994093 25.05533111860925 0 0 0
4033 46 1 13.02659349253714 18.45805619414449 13.47991910530154 0 0 0
7067 23 1 1.8400743894273017 24.507605658787952 30.222249514940174 1 0 0
9496 63 1 1.9007140544650432 24.882193879343063 18.078872801583188 0 0 0
7472 5 1 12.735685657791347 2.579622414470785 31.73821823967585 0 0 0
8133 56 1 6.774819080997265 9.805450955846768 31.397753068062695 0 0 0
9195 61 1 8.654355908254203 20.13298482455918 28.54412310987801 0 0 0
521 3 1 2.4334327673021914 5.327827114400638 11.197294422939198 0 0 0
9196 61 1 9.990525802031305 20.689584639657586 29.066178637346407 0 0 0
8130 56 1 5.107810364644435 9.296816616064236 27.89744940544278 0 0 0
7468 5 1 9.149958201656508 2.4287935180308198 28.238190894208092 0 0 0
9499 63 1 4.639276047056282 25.47129330255794 20.960684997083817 0 0 0
7469 5 1 10.189269927229114 3.291092679224547 28.89063686560702 0 0 0
2804 33 1 16.63393809489058 2.7885856322655918 11.197479330210676 0 0 1
9497 63 1 3.143207141330222 25.36499614796206 18.8332719458972 0 0 0
8675 62 1 9.715488620636684 15.368038447114442 28.234082503030326 0 0 0
9506 63 1 9.36627279600581 24.805156404853026 28.538872370182546 0 0 0
8674 62 1 9.102294964172843 16.12279830333375 27.081323131371537 0 0 0
4410 38 1 11.270359419542393 22.764530150906896 12.011302469676561 0 0 0
8423 40 1 2.8603494680945976 12.34922475977146 18.848215807653922 0 0 0
3413 29 1 16.77238126878433 12.412455193010125 13.156412559965707 0 0 0
9502 63 1 6.692795100125839 24.77118115368159 24.255245851674296 0 0 0
8435 40 1 11.61713118657863 12.170449793524972 31.463434588259002 0 0 0
7245 52 1 4.528821954238797 0.6015362923225057 27.13838374473053 0 0 0
1751 43 1 3.590764791260572 18.36651613119393 13.435305568310707 0 0 0
9286 62 1 7.641009082669523 22.67216786764124 31.30713873870283 0 0 0
9505 63 1 8.898940720312666 25.621019754920262 27.329809670073743 0 0 0
461 3 1 17.06347291965819 5.147156575312045 30.369119078272035 0 0 0
7699 1 1 3.5547806914268625 4.951603089680063 26.292317146574945 0 0 0
8125 56 1 1.268065773219398 10.255282041969265 22.72187719782518 1 0 0
7698 1 1 3.209995463517051 5.699024166162296 25.030443976350433 0 0 0
8515 56 1 8.346643678237289 13.534750464582507 32.43578559206374 0 0 0
697 4 1 18.663644272421035 7.541194127448358 26.868043532607818 0 0 0
8666 62 1 3.0209297127931616 17.13024245093766 19.04645423460533 0 0 0
8888 59 1 0.8015486940963485 17.798725580745362 22.093166185414585 1 0 0
4034 46 1 13.316678960701015 19.188284324266547 14.810238231447455 0 0 0
7703 1 1 6.486581250736902 4.679002545000323 30.41425016331538 0 0 0
3864 31 1 16.51835416010072 16.331196811239717 11.645852697117036 0 0 0
9509 63 1 12.17516455862916 25.486323325826177 31.33158864150489 0 0 0
8891 59 1 2.4923334969228477 18.36809131916104 25.652415180612717 1 0 0
2139 17 1 18.60104954692308 24.758627767802558 28.114400897562025 0 0 0
7464 5 1 6.7209531927769115 2.368591978457418 23.83681278103386 0 0 0
8505 56 1 1.0695369713069278 13.892239379815406 21.83092466457843 0 0 0
2128 63 1 6.025880264999687 23.752913742698844 16.38120469114248 0 0 0
9504 63 1 8.000510814829214 24.87078680323418 26.404655706910127 0 0 0
3187 41 1 16.850514449145535 7.7449928596930855 12.974436855492241 0 0 1
3851 39 1 11.79680212997884 14.189076714562498 11.62145556485768 0 0 1
1522 11 1 8.89678941667689 17.133212660141 15.044609210280836 0 0 1
8421 40 1 1.5741865598304918 12.646587444549608 16.636967391686937 0 0 0
9185 61 1 1.8672571376425522 20.96574150868905 17.85183814672555 0 0 0
7457 5 1 2.0671549478796964 3.410165961483499 16.259017149135172 0 0 0
7458 5 1 2.0980278260397904 2.8985665740011037 17.681385122179176 0 0 0
7459 5 1 3.1573521473333463 3.484506498983003 18.579449863607966 0 0 0
7460 5 1 3.3945154512818103 2.8185768055825218 19.952528817439145 0 0 0
7461 5 1 4.477153025790136 3.3608690327750206 20.836629142951168 0 0 0
7462 5 1 5.028982838666995 2.4741559000282036 21.92738952304679 0 0 0
7463 5 1 5.9703699132175485 3.1926060906760565 22.835691226196715 0 0 0
5029 64 1 2.193746313847719 2.276609789468123 30.34919883245682 1 0 0
7249 52 1 7.647129651520451 0.9378870227422479 31.084275742608977 0 0 0
7917 9 1 12.626910896281172 6.8233105618750765 32.00845651650933 0 0 0
1073 4 1 18.197087961333 12.264577454452983 26.886714447503508 0 0 0
982 47 1 2.7910331580101215 9.480260421578928 11.33501775288473 0 0 0
3867 31 1 18.002282764334502 16.83312749108366 15.196188199454143 0 0 0
9498 63 1 3.298449179880292 25.04662326895011 20.270770385505237 0 0 0
4418 38 1 17.421745904324922 23.162159987437644 20.318668227477588 0 0 0
9188 61 1 4.548571795513817 20.982024374394953 20.742358845027034 0 0 0
446 3 1 9.921597196533206 3.2479088735956787 15.499599496903713 0 0 0
1520 11 1 7.582798660184521 17.257457530743526 12.832663787387226 0 0 1
2347 16 1 6.5859952072559205 25.1768580099734 11.339716193591128 0 0 1
7467 5 1 8.260210102099375 3.23678576042743 27.28595180728019 0 0 0
1844 59 1 17.924789983031193 21.308775964693698 26.88577398834296 0 0 0
8667 62 1 4.2598086825950645 16.43499620080445 19.723983866176724 0 0 0
5857 13 1 2.116550802570346 11.566379396631193 29.90499048360507 1 0 0
9198 61 1 11.666242238110714 21.00322367184646 30.98074618942935 0 0 0
6687 48 1 0.7973559167203036 20.70358139759296 29.65885950298034 1 0 0
8132 56 1 6.580799879976346 9.205328040343005 30.037180761982718 0 0 0
9197 61 1 10.460457242339606 20.23352054266892 30.42991499450555 0 0 0
4035 46 1 14.561747122964531 18.65167814322472 15.531673639459333 0 0 0
7456 5 1 0.9043616924335676 2.675579088785014 15.470195025255297 0 0 0
9494 63 1 0.5845673723079724 24.8666399708773 15.928845706554064 0 0 0
7903 9 1 2.7650813146575497 7.0610192000662755 17.321718259608566 0 0 0
7904 9 1 3.1622689797869548 7.916545360588142 18.575273936977432 0 0 0
7905 9 1 4.017349431725127 7.06835191122401 19.51378773075647 0 0 0
7906 9 1 4.156534145062325 7.421444085817654 21.00062526400102 0 0 0
7907 9 1 5.5112573887700105 6.9713519978884255 21.605448670383048 0 0 0