LAMMPS data file via write_data, version 23 Jun 2022, timestep = 11112117

8487 atoms
2 atom types
8471 bonds
3 bond types
8455 angles
3 angle types
8439 dihedrals
3 dihedral types

0 36.89775039 xlo xhi
0 26.67072 ylo yhi
38.88352918541116 197.86807521459258 zlo zhi
0 5.0019999894383185 0 xy xz yz

Masses

1 14
2 15

Pair Coeffs # lj/cut/omp

1 0.0914 3.95
2 0.1947 3.75

Bond Coeffs # harmonic/omp

1 449.5 1.53
2 449.5 1.53
3 449.5 1.53

Angle Coeffs # harmonic/omp

1 62.0967 114
2 62.0967 114
3 62.0967 114

Dihedral Coeffs # opls/omp

1 1.411 -0.271 3.145 0
2 1.411 -0.271 3.145 0
3 1.411 -0.271 3.145 0

Atoms # molecular

1 3 1 3.9380315321179418 2.0700510779979346 40.16692209981158 0 0 0
2 3 1 4.35576329905852 1.6758265658685283 41.532646123771684 0 0 0
3 3 1 5.841482719696884 2.069747052104027 41.69919621556035 0 0 0
4 3 1 6.246959806800972 1.5383803588972709 43.02618787872049 0 0 0
5 3 1 7.093817665482505 2.3560912950939517 43.917493687859725 0 0 0
6 3 1 7.666814713182489 1.517139130779423 45.08992914717986 0 0 0
7 3 1 8.596654667750935 2.2078764237955038 46.099341540673095 0 0 0
8 3 1 9.527995707846745 1.6408087702894532 47.189220795069524 0 0 0
9 3 1 10.331756171563555 2.5073370774922523 48.07798431461923 0 0 0
1612 15 1 4.881628386043892 19.869027796124794 42.460523478341464 0 0 0
2135 63 1 10.542227887474342 0.10828416106163977 43.745807275541125 0 1 0
1904 17 1 5.7898685508378875 23.51889961374637 43.67643810684094 1 0 1
260 14 1 6.947548629610964 3.9435867266255777 39.02925934103206 0 0 1
2134 19 1 10.821834631875314 25.679446687307184 42.74886688155553 0 0 1
7832 60 1 2.3788036858718096 22.00148753699749 44.75537259774921 0 0 0
8275 62 1 3.664859343564212 26.047338572708693 45.46299917374871 0 0 0
3125 27 1 16.735659568285904 12.892241879640537 38.93037720411895 0 0 0
865 3 1 5.678529940894245 11.097596015680786 42.01778499200403 0 0 0
3421 29 1 12.190331267739063 15.532552487060752 39.5744648308722 0 0 1
1609 14 1 2.690801697961854 19.172011408411986 39.37939577631913 0 0 1
2145 34 1 17.661148362293936 1.6687496729189362 45.061643635000394 0 0 0
3085 18 1 16.116380355219494 10.429288429831594 43.69452946740377 0 0 0
1900 17 1 2.7969888348722693 23.425719802858268 39.67847317908694 1 0 1
262 1 1 13.132164511597194 4.610371865599759 45.06362729937769 0 0 0
263 1 1 13.60752581760205 4.004165039209726 46.40141954197936 0 0 0
8055 45 1 1.201835578191884 23.820112582911012 47.587913688259455 0 0 0
3797 34 1 15.516744142399892 24.412032220689387 42.69885548452913 0 0 0
7829 60 1 0.34297333049841916 21.029464530519228 41.7708042391553 0 0 0
224 3 1 2.6006181049148496 1.3522713215473094 39.740110515160595 0 0 0
1646 38 1 6.9243535546938695 21.365438608042307 39.22419320542461 0 0 1
1902 17 1 4.100342938507584 23.530321158747206 41.76591053069444 1 0 1
2809 22 1 12.993413791951697 5.7534750836357915 39.76423109742897 0 0 0
2370 21 1 16.729184699889135 3.7431208956401636 39.64186171314553 0 0 0
7262 5 1 7.085847162552416 12.656381209691085 49.200123114013635 0 0 0
1693 64 1 17.22703150642895 24.618319489104888 54.49214710512014 0 0 0
2130 19 1 7.216617756306029 25.879436723150636 39.93076453029308 0 0 1
301 1 1 8.670485322415361 4.011394824216672 40.9233569275675 0 0 0
302 1 1 9.679764010444362 4.607892768516822 41.82496413738528 0 0 0
303 1 1 10.263088285284146 3.6427101093447716 42.81758239509207 0 0 0
304 1 1 11.394571373600296 4.50907258539808 43.283870856336115 0 0 0
305 1 1 12.247041345643018 3.7461191822661326 44.23124094929684 0 0 0
7216 55 1 1.511851427420055 13.09887172633234 42.59130321835035 1 0 1
307 5 1 4.600893076021345 5.734475987309306 41.481328583367265 0 0 0
308 5 1 5.633713461471394 6.475002009963108 42.28924937032685 0 0 0
309 5 1 6.730242240104565 5.821206893807154 42.98672209342541 0 0 0
310 5 1 7.208837462594785 6.678564292279965 44.12079387868654 0 0 0
311 5 1 8.3869947334499 5.941842281134775 44.808863891269965 0 0 0
312 5 1 9.37549642326801 6.778595748639995 45.535614169018984 0 0 0
313 5 1 10.152470351909844 5.83562204019405 46.46159762165172 0 0 0
1391 12 1 6.785584080728531 16.78642914183644 38.96586638194188 0 0 0
3794 34 1 12.881101253303791 23.577573049990598 40.171309517748874 0 0 0
7309 16 1 0.45944779602342783 15.302488946739853 46.81009320489693 0 0 0
6838 51 1 0.4933850585214793 6.547845627163045 46.813818502514955 1 0 0
643 21 1 8.713005403296291 8.05815515119351 40.234496843739045 0 0 0
7315 16 1 6.086220814593095 15.320280100823586 52.009822636789586 0 0 0
3427 58 1 17.052701620892574 16.629742548558298 39.81241264864918 0 0 0
7311 16 1 2.2257373164257914 15.689168842078566 48.57053048731987 0 0 0
3122 25 1 13.207818180129296 11.098474834463836 41.40391573028346 0 0 1
7600 57 1 1.3651757027041729 19.06827050034056 47.86582342263101 1 0 0
1654 38 1 13.962466332435731 22.32044524214254 45.418085243788056 0 0 1
8276 62 1 4.630438842392031 0.10926478975755397 46.37056976570042 0 1 0
7267 5 1 11.963759697648843 13.636112266458872 53.27468222142025 0 0 0
6992 53 1 0.893264410641645 10.335539979301894 47.55379896454567 1 0 0
1163 10 1 2.474159233781703 14.869689043838475 39.53815069327509 0 0 0
424 21 1 12.363446224288918 8.676496805344868 45.17943072978346 0 0 0
425 21 1 13.708352095314453 8.246058263196154 45.70790233114036 0 0 0
426 21 1 14.046616607406316 9.122457108632563 46.956012555750405 0 0 0
6184 49 1 2.081824448172396 25.94124030187921 53.51350724797098 1 0 0
2143 34 1 16.141808947857548 1.6338690222957357 43.05407217038868 0 0 0
2814 24 1 17.123156954938214 8.90004678648804 40.911827514089545 0 0 0
2146 34 1 18.104343108259584 2.4560326036235884 46.288809261993876 0 0 0
6408 62 1 3.12643877334271 1.6880089706437067 49.43821230435556 0 0 0
863 7 1 3.8052590763391305 11.200059563414879 40.30966547174721 0 0 1
862 7 1 2.775264615795262 10.334989312027881 39.38812725401436 0 0 1
5428 60 1 1.2654553796358525 18.019345377108692 52.54146857576911 1 0 0
7318 16 1 8.735251769808402 14.618288722861017 54.632731666092035 0 0 0
7837 60 1 7.089675911345831 21.467004163169037 49.05473650302549 0 0 0
430 21 1 17.854409525639376 9.43940921909606 50.29415016974503 0 0 0
644 21 1 9.393332963202756 9.083334036936424 41.081918532275544 0 0 0
645 21 1 10.440501407847668 8.400365439257687 42.04992176297423 0 0 0
646 21 1 11.024909748120152 9.04345548976448 43.30123982887797 0 0 0
647 21 1 12.081358784388058 8.107838784065104 43.79857648524976 0 0 0
648 3 1 11.716932292247353 10.633309248427757 48.757029336717565 0 0 0
649 3 1 12.672017074143096 11.570774622614405 49.343601292350144 0 0 0
650 3 1 13.448128988211371 10.893237138354012 50.46523604170596 0 0 0
651 3 1 14.468593098056616 11.703633798047598 51.28914499158766 0 0 0
652 3 1 15.167588275281974 10.846927060335881 52.31361867510168 0 0 0
3428 58 1 17.712587725005818 17.651763177563243 40.66901406248158 0 0 0
7217 55 1 1.8833940171713008 12.356454480905608 43.81086580877875 1 0 1
1177 12 1 15.982509044490177 17.173270341219034 47.55544301965631 0 0 0
266 1 1 16.262614377990797 4.952654959089897 49.044707434191146 0 0 0
1176 12 1 14.9570113835738 17.877191407864043 46.70625450259122 0 0 0
1647 38 1 7.540757321100671 22.04383155277145 40.48945766331054 0 0 1
7840 60 1 9.789385561271114 22.20538182318374 51.82303009319937 0 0 0
908 8 1 7.605602992949171 13.58134397289568 39.73989420598519 0 0 1
956 10 1 17.71741225690003 15.87726602667633 54.02971715479956 0 0 0
2132 19 1 9.245425405386518 0.12708092646004768 41.10141168470486 0 1 1
386 5 1 2.529274978779345 5.91974952365838 40.00062439438863 0 0 0
4795 27 1 1.2253568747716677 8.58752552899448 52.24297161216964 1 0 0
4358 49 1 1.9851873695323314 3.5128630020701737 53.517498735134026 0 0 0
867 3 1 7.498171189385099 10.953080572114965 43.91844832154322 0 0 0
868 3 1 7.961975345691495 10.214025109437193 45.2289321928105 0 0 0
869 3 1 8.926164425973916 11.138369972096308 45.940062182883516 0 0 0
870 3 1 9.73104291359561 10.435052631470095 47.0933839885977 0 0 0
871 3 1 10.687533498994881 11.315697653725612 47.87058478858468 0 0 0
909 9 1 12.812102536150393 13.387016355618819 45.161553402441804 0 0 0
910 9 1 13.625459525548292 12.647031984859632 46.208643222351974 0 0 0
911 9 1 14.444504453789406 13.599666801927242 46.90008411123347 0 0 0
7599 57 1 0.4175822017385405 19.965697579261562 47.10545443138042 1 0 0
6843 51 1 5.001246757808908 5.796237015603711 51.21337089294256 1 0 0
3502 9 1 17.835594145024377 19.7990468661256 45.8016621881074 0 0 0
642 6 1 7.6573050147487915 8.806349134607546 39.375042715299465 0 0 1
321 5 1 16.118011803787258 5.526257584423137 53.81613056007516 0 0 0
316 5 1 12.213343541998137 6.860397202612082 49.411162490843836 0 0 0
8272 62 1 1.267162755992688 0.1907827138733041 42.613635613005435 1 1 0
3496 9 1 13.101338036152532 19.069873788748733 40.007148945383754 0 0 0
6840 51 1 2.2478777698534174 6.54151996468204 48.539448067347294 1 0 0
6407 62 1 2.026001644707551 2.423815160338767 48.75204568261128 0 0 0
7607 57 1 7.240839026004375 20.053984542132532 54.08831687973253 0 0 0
942 9 1 9.341592986688973 13.484072499454342 41.41353230589147 0 0 0
943 9 1 10.108106182585912 12.539829350448333 42.42348251978673 0 0 0
944 9 1 11.06685692559939 13.361026632698898 43.229047614770415 0 0 0
945 9 1 11.868745381370914 12.492841425836119 44.2058063151385 0 0 0
946 10 1 8.663643594124126 15.511031046875877 45.41148129859508 0 0 0
947 10 1 9.701780834737214 14.882251219612979 46.36780557194251 0 0 0
948 10 1 10.250443767205471 15.945917824880532 47.418338404297444 0 0 0
949 10 1 11.34256977553562 15.121025367204256 48.19830339532856 0 0 0
950 10 1 12.483186595327394 15.932631001304934 48.79434098201276 0 0 0
951 10 1 13.065125459377553 15.17005016272965 49.9878194566664 0 0 0
8271 62 1 0.6571353464733909 25.686108490413634 41.8238129273126 1 0 0
5734 45 1 0.9662534476935334 21.991718206774458 52.41590447807004 1 0 0
6955 41 1 0.6942651971800966 8.869885673328456 42.87554358097439 0 0 0
2808 4 1 11.919707919748923 6.61745885405388 39.104199258319866 0 0 1
7266 5 1 10.922347176144518 12.864295324701434 52.52933953940351 0 0 0
7604 57 1 4.7534416809859055 19.108138947226525 51.413949992629455 1 0 0
1908 17 1 9.851201477423226 23.800497612723237 46.64350185003961 0 0 1
6414 62 1 8.361395104007084 1.7216140531549684 54.60554168051407 0 0 0
5096 33 1 1.4499115840871182 13.417920175659804 52.42264403936185 1 0 0
8280 62 1 7.957717162544559 0.2384974685649054 50.07895170219744 0 1 0
7831 60 1 1.8094567446685952 21.092517430315862 43.76167088020662 0 0 0
1164 10 1 3.4375010938783497 15.744692228704826 40.41919141270466 0 0 0
1165 10 1 4.547114642270214 14.885132855539862 40.79334203335749 0 0 0
1166 10 1 5.27834550743956 15.522511974663681 41.839241075686424 0 0 0
1167 10 1 6.056745095188749 14.59609065550705 42.736343355510606 0 0 0
1168 10 1 6.97415654342165 15.435890385703493 43.47373507709126 0 0 0
1169 10 1 7.695191515931572 14.642678509350404 44.54546199617724 0 0 0
1170 12 1 9.028384546519899 17.539907114312275 42.11033150452271 0 0 0
1171 12 1 10.417467422067839 17.130856319299433 42.34505122896012 0 0 0
1172 12 1 11.080387981943147 17.618036383546563 43.62149480330819 0 0 0
1173 12 1 12.240602246718137 16.820953384547696 44.161023301336726 0 0 0
1174 12 1 13.038681070240292 17.73161205947656 45.067234921412194 0 0 0
1175 12 1 14.116761203369315 17.061987028300187 45.87144704868673 0 0 0
8273 62 1 2.06803914534795 26.029059078099017 43.59356008077356 1 0 0
3350 28 1 17.540745845277762 15.667411933437648 44.73308069931469 0 0 0
1400 15 1 15.904973472403173 20.02163317256907 52.675155053668405 0 0 0
6842 51 1 4.102145976392276 6.56627843035393 50.1968112800068 1 0 0
864 7 1 4.811549756581035 10.281019635606897 41.04058051478585 0 0 1
6841 51 1 3.2107056697991867 5.743250053636727 49.32409708974065 1 0 0
8058 45 1 3.525058753959705 25.033552377514216 50.40272122845462 0 0 0
5736 45 1 2.6807655571707083 22.262429849394014 54.119756301405864 1 0 0
7557 12 1 2.704151765607036 17.428757768095796 44.23335235550384 1 0 0
913 9 1 16.242710965047202 13.695358597587553 48.68909483288857 0 0 0
5733 45 1 0.5135869619761775 21.264501699764256 51.16440628467865 1 0 0
2133 19 1 9.769618996438664 25.489203983281914 41.75066224137708 0 0 1
1394 15 1 10.266082896791751 20.138911965833735 47.769482378919434 0 0 0
1395 15 1 11.478629670392191 19.227194947820745 48.365520572164485 0 0 0
1396 15 1 12.113187085629875 19.979310519856856 49.53000698986216 0 0 0
1397 15 1 13.248916499686533 19.172951311823134 50.25347642049529 0 0 0
1398 15 1 14.074745995071517 19.95296790651795 51.27067098787383 0 0 0
3501 9 1 16.998453677803784 20.510278740509623 44.79596993212794 0 0 0
16 3 1 16.49800142833244 1.5262875510230005 53.9139673250072 0 0 0
1392 12 1 7.525207981277665 17.6831434041332 40.014110943033984 0 0 0
1907 17 1 8.754197974535318 24.548140007950902 45.93180770576168 0 0 1
7316 16 1 6.6415631515887545 14.901003219020966 53.305185963044046 0 0 0
2363 34 1 12.535889826844397 1.4172925051749024 39.68653616174475 0 0 0
1688 16 1 15.31747462531931 21.73305467805438 47.60973176193779 0 0 0
7562 12 1 7.219696730110639 16.852666578321024 48.77613608081488 0 0 0
7000 53 1 8.20489329314207 10.37818589850656 54.40081413809122 1 0 0
4357 49 1 1.1805231155492457 4.38683673555871 52.61481613908733 1 0 0
8279 62 1 7.248711465284154 25.993139239517344 49.08836120158562 0 0 0
3796 34 1 14.77568279007435 23.597886429918812 41.781378038565 0 0 0
654 3 1 16.858175558781213 10.765796834312109 54.14705351451293 0 0 0
1613 15 1 5.983274972913998 19.17176230481959 43.25734113278113 0 0 0
1614 15 1 6.416326071980456 20.20600727123525 44.3284390745783 0 0 0
1615 15 1 7.684195073074199 19.602652679768184 44.942798560902986 0 0 0
1616 15 1 8.306043213041955 20.1136420684529 46.2341507148022 0 0 0
1617 15 1 9.254982694598276 19.226490682676417 47.020230385799906 0 0 0
3719 9 1 12.113676617361927 19.76416638215696 39.2761552768636 0 0 0
3799 34 1 17.284101902461966 24.62313378282335 44.50770275146201 0 0 0
7317 16 1 8.131302795973006 14.600412500478228 53.210340299860185 0 0 0
14 3 1 14.633322955583164 1.5547441415673853 52.34198871479768 0 0 0
3795 34 1 14.074451371803965 24.3501743641298 40.70025342438678 0 0 0
320 5 1 14.86744237666455 5.705313681958041 52.88966956985469 0 0 0
267 1 1 16.901050062947764 4.153388006498294 50.18766511224439 0 0 0
8060 45 1 4.950361377385397 24.404351786618662 52.381601284982445 0 0 0
317 5 1 13.101679408493107 6.445326415894843 50.52626827029668 0 0 0
3497 9 1 13.698871493661558 20.032706956786168 41.008600463931685 0 0 0
7555 12 1 0.7671460576853673 17.41614930437397 42.59165981506794 1 0 0
1909 64 1 10.304362655781304 24.60318764000928 47.80173471224053 0 0 0
7830 60 1 1.0690656073776936 21.945416244500322 42.80431124314906 0 0 0
1655 16 1 18.483560057694817 21.751905528714065 51.267615997429296 0 0 0
1652 38 1 11.751315289139736 21.137243101049233 44.735175309662765 0 0 1
1689 16 1 16.336952207705654 22.608249714123843 48.42486225625365 0 0 0
1690 16 1 16.820962411204764 21.72482209738592 49.52407769739831 0 0 0
1691 16 1 18.090364257696212 22.42269464906137 49.91241600775799 0 0 0
1687 16 1 14.65422115085994 22.768833793634908 46.63373896605782 0 0 0
2813 24 1 16.721401845709025 8.136050378955055 39.65822146978193 0 0 0
15 3 1 15.824118049328845 2.2797116075201593 52.79665019180626 0 0 0
1178 12 1 16.696841342406028 18.21542513265517 48.42960155648237 0 0 0
3349 28 1 16.339354533197994 14.947841884014219 44.177864243773314 0 0 0
6183 49 1 1.2348134753077082 0.1469149192212766 52.54245236681163 1 1 0
2142 34 1 14.877798756013464 2.216485186911446 42.40423145832712 0 0 0
6995 53 1 3.6570886709555133 11.392648192409732 50.21434260342353 1 0 0
6185 49 1 3.2518306438879803 0.0011349254034692005 54.059956656053075 1 1 0
1915 64 1 15.442894751238423 24.158049093116006 52.88778607956253 0 0 0
8283 62 1 10.591165740253388 25.86978059020574 52.83260657198591 0 0 0
7310 16 1 1.6251232160895352 14.65247503013726 47.583651826968556 0 0 0
7314 16 1 4.813539608566234 14.73665012298692 51.31444814866895 0 0 0
1401 15 1 17.003313731471124 19.356606187514753 53.380164227569566 0 0 0
6182 49 1 0.5348173471985684 25.894741283528354 51.57131511261951 1 0 0
8278 62 1 6.324531558977803 0.059353262235831206 48.20152069063146 0 1 0
5735 45 1 1.9934350211395313 21.323497743040825 53.192118803178104 1 0 0
1910 64 1 11.246089113509548 23.71559745261666 48.56288158322339 0 0 0
1911 64 1 11.579392833347596 24.272927576620894 49.85981096064522 0 0 0
1912 64 1 12.779332966570335 23.53327341514574 50.440230443928805 0 0 0
1913 64 1 13.671294608364406 24.48164681799953 51.222218071246346 0 0 0
1914 64 1 14.645884915005665 23.466737125725697 51.85275917434684 0 0 0
3126 27 1 17.0106403969485 12.308622155554405 40.32770161628735 0 0 0
1916 63 1 14.86287197505871 0.6697747516073678 47.25349321862896 0 1 0
1917 63 1 15.384655451184065 26.181524871276277 47.95761068191713 0 0 0
1918 63 1 16.21011512239643 0.16514477567879204 48.98029181335124 0 1 0
1919 63 1 17.235429427864506 25.914064281043743 49.540992785545455 0 0 0
1610 14 1 3.480625811673153 19.736568298887146 40.46843878849503 0 0 1
3499 9 1 15.20762510659484 20.08346108251208 43.05704525929451 0 0 0
914 9 1 17.506943441040224 12.900564449604747 49.15175720495768 0 0 0
7833 60 1 3.3314058837222715 21.254824847911735 45.72106352188669 0 0 0
7558 12 1 3.7787183644078235 16.790865144888755 45.10557822511279 1 0 0
3792 20 1 16.89530112701975 21.075100847534248 39.94363471505019 0 0 1
1903 17 1 5.121156372567879 24.333864621035247 42.562622727060365 1 0 1
8059 45 1 4.579113003647653 24.226259433434155 50.964279479556396 0 0 0
8282 62 1 9.887148296985881 0.2169649200230373 51.94350023018702 0 1 0
7568 12 1 12.636826667157997 17.351722276529898 53.957061762282514 0 0 0
2136 63 1 11.7756089516343 0.3644452154279317 44.55936954942965 0 1 0
2137 63 1 12.550296862541273 25.668915626500922 44.812566994881 0 0 0
2138 63 1 13.423234884419156 25.755680441601935 46.0624536096287 0 0 0
2139 63 1 14.43200826653498 0.1566574290631326 45.903589728931045 0 1 0
2140 34 1 13.014783948152823 2.2843030685072256 40.80839805783049 0 0 0
2141 34 1 13.965815109725765 1.3465634403780924 41.618247024617936 0 0 0
4797 27 1 2.98670169597221 8.729592664854586 54.10737166795906 1 0 0
6967 41 1 11.89009028704794 8.916588333955584 53.454947256290495 0 0 0
7602 57 1 3.210187282538899 19.545552123825843 49.56386175933589 1 0 0
1901 17 1 3.577891636806166 24.372042222718193 40.60910323348722 1 0 1
2812 24 1 15.69706967839993 8.897928629254299 38.917775159086176 0 0 0
955 10 1 16.570812675334412 15.0338863304664 53.58462333130042 0 0 0
6999 53 1 7.506024023389614 11.19423485386656 53.42206509377051 1 0 0
7313 16 1 4.25867793023299 15.599890609787785 50.11059555376967 0 0 0
6844 51 1 5.7498724873705935 6.579862257142333 52.21271200013335 1 0 0
7606 57 1 6.686766043526775 19.015339696548473 53.09750836524656 1 0 0
7259 5 1 4.893138763167336 12.975331403383212 46.043297901323136 1 0 0
6846 51 1 7.499061222628702 6.768127339669029 53.97289482320292 1 0 0
2588 22 1 15.000297021138456 6.658441992526468 42.85733795846418 0 0 0
2589 22 1 15.812726366325448 5.948249002617133 43.99878851177494 0 0 0
2590 22 1 16.766909495430028 6.853960692659921 44.806962649844614 0 0 0
5098 33 1 2.906898282763966 13.171732802113368 54.338792184313306 1 0 0
4359 49 1 3.3211536025252038 4.101106670856514 53.848910661446276 0 0 0
314 5 1 10.769463099751276 6.572772913428772 47.59128904838247 0 0 0
7566 12 1 10.801360430775581 17.41929858819511 52.18759652035942 0 0 0
7836 60 1 6.159277737553691 22.39918520631662 48.23690823218672 0 0 0
7605 57 1 5.857717822055114 19.811558662956944 52.05630006368344 1 0 0
1180 12 1 18.40201741478143 18.402087721427858 50.28732003530915 0 0 0
6410 62 1 4.690813839953318 1.4629485597278187 51.22508532597074 0 0 0
1651 38 1 11.737660017467148 22.046390923301974 43.520870175760734 0 0 1
13 3 1 13.92798820540337 2.3407490968384783 51.214258703612984 0 0 0
6961 41 1 6.402406973292602 8.809123044024982 48.09645620010697 0 0 0
306 5 1 3.6005500545534854 6.641045969611571 40.760207445496114 0 0 0
431 21 1 18.775239451595628 8.688375037599119 51.3037034117487 0 0 0
3127 27 1 18.042946047766844 13.254108983982125 40.88478970491486 0 0 0
952 10 1 13.916433490318344 15.97696609884965 50.84101180250771 0 0 0
6998 53 1 6.3014958858495635 10.36795815208327 52.986387593725894 1 0 0
2131 19 1 8.599433953703665 26.41619426371351 39.80394577479648 0 0 1
4796 27 1 2.261852748407258 7.858859353965641 53.07448345764983 1 0 0
6412 62 1 6.279296498047159 1.5821023844719895 53.03925201251074 0 0 0
3798 34 1 16.6063207723983 23.735009478953117 43.56752687755905 0 0 0
3086 18 1 16.754777380277496 11.121586096092715 44.92116461219144 0 0 0
954 10 1 15.943349814534173 15.672779907004108 52.35478141412899 0 0 0
8274 62 1 3.0979659801338153 0.1623713697055138 44.34115911481881 1 1 0
6963 41 1 7.90304100985836 9.13601664212408 50.14047513550379 0 0 0
1393 12 1 8.307576362488492 16.828504438884565 40.93180465774492 0 0 0
3348 28 1 15.656491867214449 15.731255054569132 43.08515793104282 0 0 0
7841 60 1 10.903644041428405 21.358582276482625 52.457938067867246 0 0 0
265 1 1 14.97851494151089 4.427466921045262 48.428266390700145 0 0 0
6993 53 1 1.9335240965880065 11.088783087841822 48.351178517152704 1 0 0
427 21 1 15.30017886426973 8.524490150869465 47.54610658659021 0 0 0
10 3 1 11.100026190521078 1.5264942630699003 48.87492435559777 0 0 0
953 10 1 14.652293274859392 15.10192968672379 51.92654379475787 0 0 0
5429 60 1 2.131173635026764 16.970150751140704 53.199349679373185 1 0 0
3383 28 1 13.916150912356315 15.632753538993569 41.45604538487064 0 0 0
3384 28 1 14.736137116806331 14.713519576012363 42.366292779970856 0 0 0
3498 9 1 14.614162111545298 19.2307409506677 41.844509728982224 0 0 0
3121 25 1 12.865908705901111 10.216785952465749 40.13777849293838 0 0 1
7258 5 1 3.57827106799901 12.479377486347222 45.510903759188075 1 0 0
2371 21 1 17.509823713166025 4.601739907770033 40.76250960988539 0 0 0
5430 60 1 2.722631520954393 17.665813210575035 54.34605124475402 1 0 0
2144 34 1 16.66292504888226 2.3627320655008424 44.19816728007365 0 0 0
1611 15 1 4.494514710496633 19.042809147601837 41.170855947384 0 0 0
7603 57 1 3.7773346487375425 20.12528133848226 50.83205041184386 1 0 0
6996 53 1 4.571584692519056 10.55364405056192 50.99109608126166 1 0 0
8063 45 1 8.266538523647988 24.034411894714783 54.222006751854195 0 0 0
7563 12 1 7.7504976558520795 17.836481761737392 49.78715592550895 0 0 0
428 21 1 15.685159121311502 9.369414701734453 48.718925787999645 0 0 0
6409 62 1 3.721523728479847 2.4327197050966305 50.52337866390729 0 0 0
6413 62 1 7.352500921443892 2.512771043735701 53.77545858948429 0 0 0
2591 22 1 17.772150746326762 5.91122365877069 45.59452951227331 0 0 0
6964 41 1 8.801067443750181 8.222883130142021 51.02406098899622 0 0 0
6960 41 1 5.8787719181036175 8.132977788024688 46.806115429191564 0 0 0
1648 38 1 8.782744630445656 21.31067835700944 41.046743705233204 0 0 1
8285 62 1 12.551902898978707 25.574475811157445 54.429487422248236 0 0 0
1653 38 1 12.955036615474658 21.192163467234803 45.7449453655249 0 0 1
1905 17 1 6.902393887758771 24.303974739675585 44.380655528214 0 0 1
7257 5 1 2.832788299280657 13.28906025379947 44.560739148284235 1 0 0
8056 45 1 2.0948439099244456 24.89591972769519 48.248968690039696 0 0 0
3123 25 1 14.20998120096997 10.260730843542886 42.20531377991411 0 0 1
941 9 1 8.513290605529011 12.589091975077123 40.540246052284765 0 0 0
7265 5 1 10.29012056508065 13.655949841553923 51.26584302411358 0 0 0
3800 34 1 17.730711157275163 24.064352109780323 45.80784665509694 0 0 0
3120 25 1 11.790032770966448 10.980118549419338 39.34298562476224 0 0 1
6623 51 1 1.4354746687942679 4.009297564427907 42.312596608673275 1 0 0
6962 41 1 7.593061811701582 8.272183339710075 48.91956134828799 0 0 0
8057 45 1 3.0027443715130877 24.17941359064279 49.18023908835188 0 0 0
7268 5 1 12.59990874787152 12.997483927254587 54.54629156847492 0 0 0
7835 60 1 5.2773348025920335 21.458373945941254 47.38489140235835 0 0 0
2811 22 1 14.63451147455186 5.646595703501211 41.84793328905519 0 0 0
7843 60 1 12.790324804525257 21.578391768163215 54.110296986925185 0 0 0
264 1 1 14.653484784424377 4.943838858984982 47.012228243527176 0 0 0
12 3 1 13.062713049959395 1.4703456639814498 50.41103852852547 0 0 0
3500 9 1 16.25498629503267 19.52846673085963 44.01347143948486 0 0 0
7261 5 1 6.377218910742858 13.22196675289319 47.99683149546264 0 0 0
6845 51 1 6.742717563383495 5.738652217383137 53.02584153484802 1 0 0
429 21 1 16.843887687883097 8.626472986851576 49.40227972667941 0 0 0
8277 62 1 5.4802848429084925 25.925766756547993 47.319285305663605 0 0 0
6625 51 1 2.954344766574776 4.328518419923263 44.20620700755101 0 0 0
3084 18 1 14.967608120730214 11.187791995736088 43.04152272694926 0 0 0
7565 12 1 9.609066984775836 18.092550805207402 51.50097261256887 0 0 0
7834 60 1 3.991735383847885 22.097631701662504 46.77445436635014 0 0 0
7556 12 1 1.7819601056669723 16.55992897415042 43.37962965816474 1 0 0
912 9 1 15.591453006858396 12.863311178441942 47.6453378420368 0 0 0
7260 5 1 5.433054975288648 12.311850565549047 47.25415630412913 1 0 0
322 5 1 17.128433734595408 6.5921111530689025 54.036986077534976 0 0 0
7264 5 1 9.181714869794284 12.78012645567664 50.73398512711491 0 0 0
8281 62 1 8.83341330953653 26.197309192800162 51.10834307564729 0 0 0
3036 18 1 17.852321180732716 10.178018596629109 45.68267545259283 0 0 0
6624 51 1 1.7956341419337525 3.4372944495814286 43.681579057054165 1 0 0
11 3 1 12.079100570491638 2.33585103294965 49.71014165374603 0 0 0
7564 12 1 9.030526238723287 17.295649991285774 50.36470275307637 0 0 0
1179 12 1 17.588533825527552 17.50893302747911 49.41653976271574 0 0 0
315 5 1 11.442838698141744 5.801737388173132 48.69063461811167 0 0 0
7560 12 1 5.621909315759246 16.916274185593487 46.80437712016334 0 0 0
3382 28 1 12.99266235388319 14.693712322969033 40.575724942781086 0 0 0
4239 32 1 17.26655461902896 26.14424882281327 39.499500866334785 0 0 1
7263 5 1 8.461542565237114 13.317295386616916 49.4631567601222 0 0 0
8284 62 1 11.64845679917813 26.563505433412047 53.55129758789509 0 0 0
7838 60 1 7.962563994168519 22.37628612606334 49.913334121488695 0 0 0
6957 41 1 2.603809929843379 9.010285870736773 44.618172942660074 0 0 0
7601 57 1 2.1468154773668173 20.101082728682275 48.66790219533523 1 0 0
6406 62 1 1.6658201605214524 1.7743032097817486 47.474747594505644 0 0 0
653 3 1 16.22301475043469 11.669834320905622 53.089447727085506 0 0 0
1649 38 1 9.64080187310602 22.02482348466173 42.17346725894406 0 0 1
3793 20 1 17.919478755678302 22.05449743196691 40.38993652943529 0 0 1
1692 64 1 16.574228727044634 23.564567070145433 53.6625736663403 0 0 0
1650 38 1 11.086501934075619 21.50140186721529 42.345644875962726 0 0 1
1906 17 1 8.04768912284197 23.53927347546816 44.93375928345977 0 0 1
6966 41 1 10.775578339403367 8.126225842226345 52.74472366149482 0 0 0
6956 41 1 1.8612103640028606 8.144235439215702 43.65040080396024 0 0 0
6959 41 1 4.58168996573304 8.79784395750887 46.304630088286515 0 0 0
261 14 1 7.998961050153721 4.7099229757223595 39.74844177983404 0 0 1
6839 51 1 1.4127932943657584 5.696034802241759 47.61121396138448 1 0 0
6628 51 1 5.504465387500048 3.9848300168301813 47.22607456031082 0 0 0
6629 51 1 6.434746069716568 5.008469643198512 47.89785327895126 0 0 0
6630 51 1 7.244200645793626 4.092559941614269 48.78372186707494 0 0 0
6631 51 1 8.02365016468607 4.96484547418228 49.78124684260385 0 0 0
6632 51 1 8.826678623905147 4.1409978663959075 50.816532754551496 0 0 0
6633 51 1 9.914043995843892 4.686786756867863 51.69890825774687 0 0 0
6634 51 1 10.878500917129262 3.8100490092399846 52.31895208455075 0 0 0
6635 51 1 11.56962547973174 4.267569067181767 53.58791742136997 0 0 0
866 3 1 6.3354552221581875 10.231785723067109 43.113687783168636 0 0 0
2810 22 1 13.568668628696008 6.406211492252658 40.996036235652696 0 0 0
7312 16 1 2.926224047132226 14.820910791335372 49.661296962753845 0 0 0
6997 53 1 5.325233583912684 11.218854352411519 52.13336404072244 1 0 0
7559 12 1 4.449795616059926 17.686278340202417 46.2136078173167 0 0 0
7842 60 1 11.406869194607163 21.88431944486845 53.82877066093362 0 0 0
7839 60 1 9.079157855589276 21.53996326475922 50.65768213299717 0 0 0
268 1 1 18.027695687894006 4.994897790142621 50.818675603077196 0 0 0
6411 62 1 5.825912536993682 2.2585234915829355 51.77828670349589 0 0 0
318 5 1 13.998673475373366 7.502695122052697 51.217117783221866 0 0 0
319 5 1 15.238523595930143 6.740478416303093 51.79659402199327 0 0 0
7215 55 1 0.32221245354630834 12.340460629180908 41.87045307108237 1 0 1
6965 41 1 9.863477833475521 8.895350472938567 51.90899745937637 0 0 0
1399 15 1 15.247309809358129 19.009247903104043 51.76702694839693 0 0 0
6626 51 1 3.612881880571533 3.8783847990161804 45.5488602939984 0 0 0
6994 53 1 2.706178158188716 10.407107186515711 49.48729193402035 1 0 0
3351 28 1 18.27242583249683 14.883584332296294 45.84554619486408 0 0 0
7567 12 1 11.579204088144282 18.180827051630025 53.28442591204862 0 0 0
4240 32 1 17.908303458677658 0.12022483388580205 40.68969503875664 0 1 1
7561 12 1 6.322909363734082 17.6710310193003 47.9278098867102 0 0 0
6958 41 1 3.6838592310066685 8.08344439623604 45.259276013532 0 0 0
6627 51 1 4.868367632381367 4.661089180238638 46.00845303869527 0 0 0
8061 45 1 6.205202033553763 23.656637870003138 52.63364319622683 0 0 0
6968 41 1 12.569638105474542 8.090467047189968 54.56052648057644 0 0 0
1920 63 1 17.976369923170736 26.52404962093786 50.68809073855304 0 0 0
915 9 1 17.95349317925427 13.464824696025516 50.49086965248611 0 0 0
5097 33 1 2.1230526655625472 12.333784248820528 53.30091087865621 1 0 0
8062 45 1 6.79422885771152 24.079492475996865 53.98239767044425 0 0 0
6636 51 1 12.48469050699457 3.2978707526783153 54.40273389610659 0 0 0
17 3 1 17.427940631155124 2.4304668137144563 54.65606087387832 0 0 0
3756 22 1 18.475603792058124 21.44682922176181 41.65739135691165 0 0 0