LAMMPS data file via write_data, version 23 Jun 2022, timestep = 11112117

8487 atoms
2 atom types
8471 bonds
3 bond types
8455 angles
3 angle types
8439 dihedrals
3 dihedral types

0 36.89775039 xlo xhi
0 26.67072 ylo yhi
26.090321858937116 210.66128254097364 zlo zhi
0 5.807004306023627 0 xy xz yz

Masses

1 14
2 15

Pair Coeffs # lj/cut/omp

1 0.0914 3.95
2 0.1947 3.75

Bond Coeffs # harmonic/omp

1 449.5 1.53
2 449.5 1.53
3 449.5 1.53

Angle Coeffs # harmonic/omp

1 62.0967 114
2 62.0967 114
3 62.0967 114

Dihedral Coeffs # opls/omp

1 1.411 -0.271 3.145 0
2 1.411 -0.271 3.145 0
3 1.411 -0.271 3.145 0

Atoms # molecular

1 1 1 4.611944768904427 2.52363355878227 29.434396893319036 0 0 0
2 1 1 5.857663886594775 1.962392299642472 29.98328844148509 0 0 0
3 1 1 6.304947001258842 2.6888266002396644 31.235606734464625 0 0 0
4 1 1 7.44098975754633 1.926393714218723 31.951284904851377 0 0 0
5 1 1 7.798220309110394 2.4149491032727775 33.358541503438964 0 0 0
6 1 1 9.242126007390116 2.1484721755173726 33.70324069551836 0 0 0
7 1 1 9.395655894811508 2.0605555761776193 35.208157507548826 0 0 0
8 1 1 10.76623190811992 1.7718166289513424 35.7818423086066 0 0 0
9 1 1 10.959411523143816 2.312480617777521 37.165930239984014 0 0 0
10 1 1 12.19462827961976 1.6983303266068666 37.94177518484185 0 0 0
11 1 1 12.565820995182827 2.436660209598848 39.24569549929696 0 0 0
6375 18 1 2.7151219819968153 1.7017267626902657 37.63091015426819 0 0 0
1932 19 1 8.457977606618641 26.168138352858893 27.525140285820612 0 0 1
3816 36 1 18.356844627315073 26.668265213961774 27.99527086410061 0 0 1
1976 20 1 17.940103701617172 1.5304671042667715 33.483823482674325 0 0 0
8285 64 1 6.0334420047425095 26.132110350259598 36.12277637420659 0 0 0
3108 50 1 15.856853247879195 19.255072240219004 31.245827343008063 0 0 0
16 1 1 16.70174710887768 1.347326565410089 43.920293162530655 0 0 0
1668 15 1 8.039473216180749 21.60747798899063 27.409558068622033 0 0 0
479 9 1 14.09549109709912 9.98072852948468 42.49073377496177 0 0 0
2360 23 1 14.688147010934973 6.930038392484473 30.34826451598177 0 0 1
689 9 1 3.386786563112729 10.841850971011787 28.383848229114555 0 0 0
6816 54 1 3.2542176713032207 6.589851987831587 39.5823896170381 0 0 0
442 5 1 17.437239560709713 8.517314646437029 39.03486331045358 0 0 0
8292 64 1 11.877914100511646 0.18974239445191413 42.93724542122909 0 1 0
444 5 1 18.84083767561079 7.971082959377587 41.08659837541627 0 0 0
2672 47 1 16.76042678919937 13.158338804469443 28.05048217270706 0 0 0
2356 23 1 11.261350441036212 6.7576125462790495 26.55850648633559 0 0 1
4947 43 1 0.8563562245341398 13.29879592254967 42.2046270549771 1 0 0
3071 25 1 18.28820697133415 17.914648931978626 28.29821352875919 0 0 1
141 2 1 8.663204057838641 4.750681259407093 29.16171694989269 0 0 0
142 2 1 9.946570775236077 4.13626393677668 29.691432391093763 0 0 0
143 2 1 10.585605873065616 4.610794728488819 31.06637322358002 0 0 0
2370 26 1 17.31428846065967 9.26169923645739 28.767278266252593 0 0 0
7513 59 1 9.581900060054751 17.850930621781323 41.37519430296671 0 0 0
7280 3 1 4.253943873266962 14.960067689271217 40.90525263851001 0 0 0
152 2 1 17.861494192736014 3.549272418224119 39.37635800681753 0 0 0
1195 12 1 16.99678359535184 17.700400505268668 38.39171348763396 0 0 0
7276 3 1 1.3234950498739395 15.142073817528162 36.68828368164798 0 0 0
2663 27 1 11.75121307184224 11.572518151328659 26.567172521950003 0 0 1
7277 3 1 2.5531740014158917 15.715281572176254 37.34617061901587 0 0 0
171 3 1 7.078745612186235 6.351062379481722 32.05892017873559 0 0 0
172 3 1 7.447588463481701 6.938013821206439 33.40725534647589 0 0 0
173 3 1 8.700068495990013 6.205244099019834 33.94882597158058 0 0 0
174 3 1 9.086072842646361 6.619522021153018 35.43006221778192 0 0 0
175 3 1 10.264352889911441 6.066055258038062 36.17269581137745 0 0 0
176 3 1 10.372249392715796 6.624173728517193 37.67841991831764 0 0 0
177 3 1 11.654264508160614 6.118768291016384 38.28456931675083 0 0 0
178 3 1 12.248562206271362 6.881456285126739 39.4952073392912 0 0 0
179 3 1 13.234790623396888 5.972416333103345 40.22692835341106 0 0 0
180 3 1 14.021554386572717 6.642192115903822 41.370574993478705 0 0 0
8279 64 1 1.2137737106710444 26.149426528638763 30.12103427395924 0 0 0
2029 20 1 11.874007481132063 2.0334592724354676 26.798903695406004 0 0 0
2359 23 1 13.956536770934585 6.254942923080842 29.24340770508761 0 0 1
6919 55 1 4.588974894160725 9.371438789153677 35.68095849282951 0 0 0
7504 59 1 2.5161861559509644 17.29083890439876 32.30790191230547 0 0 0
8284 64 1 5.252327406816225 0.30058166841387324 35.08543604364792 0 1 0
3581 35 1 11.940144872289112 24.526861287607282 26.44826370573525 0 0 1
1445 14 1 3.0274010092684738 20.46235859102258 27.11029339192157 0 0 0
151 2 1 17.243675320281692 4.577987129319169 38.47600684115756 0 0 0
391 3 1 3.6690538567432607 6.18902819177554 28.177418546438126 0 0 0
392 3 1 4.194349123430309 7.018865471669236 29.341373724994288 0 0 0
393 3 1 5.271367807487803 6.366058293645631 30.20984725600837 0 0 0
394 3 1 5.868281978712137 6.992656619875276 31.406554845461816 0 0 0
432 5 1 9.645637070038179 8.449273844872232 29.287812592461727 0 0 0
433 5 1 9.73584376385426 8.870125387261583 30.754662058692087 0 0 0
434 5 1 11.04592712708553 8.674948907323135 31.502764722496277 0 0 0
435 5 1 11.04252371039368 9.029244608089753 32.978029608313136 0 0 0
436 5 1 12.431059012086177 8.657981444888994 33.46664595206236 0 0 0
437 5 1 12.796951201334839 8.710946190071335 34.97568661478985 0 0 0
438 5 1 14.124092062854013 8.108867609362239 35.355607987498786 0 0 0
439 5 1 14.44359737934739 8.687860061704283 36.67884294168881 0 0 0
440 5 1 15.792235205335677 8.260917319389158 37.16678308856952 0 0 0
2668 27 1 15.301035234681931 10.457677265373782 31.65926119084222 0 0 1
2104 21 1 17.632785237766928 3.8329745425768116 27.433224620790565 0 0 0
153 2 1 18.69475721097862 4.251119915335251 40.52632184458075 0 0 0
3588 35 1 17.005914335757375 23.656451986028067 33.69463198566817 0 0 1
2630 14 1 16.835190440395525 10.4941789726849 33.674113686258416 0 0 0
146 2 1 13.466991860630099 3.8836901323043826 33.52252674340684 0 0 0
466 5 1 6.591649223637234 9.046440257204646 27.00299399818592 0 0 0
4509 43 1 0.7167545618929725 8.67247122296278 41.92469690948248 1 0 0
468 5 1 8.129518316631401 8.72930608654907 29.006651831350922 0 0 0
469 9 1 6.397669942202184 10.674962180272402 32.257856593812846 0 0 0
470 9 1 7.521746366028315 11.274270430881653 33.07443396847193 0 0 0
471 9 1 7.90878006359504 10.675073399857773 34.41346291745704 0 0 0
472 9 1 9.101915511157042 11.421968648375874 35.06816277679895 0 0 0
473 9 1 9.534283517029568 10.851902618733495 36.40185675654772 0 0 0
474 9 1 10.934550123143577 11.230210441013007 36.977519801809024 0 0 0
475 9 1 11.37552574273486 10.432267098529996 38.1598085253581 0 0 0
476 9 1 12.615463189444382 10.97163839851631 38.8887255129423 0 0 0
477 9 1 12.77545533370897 10.288100923222753 40.27415775477741 0 0 0
930 11 1 15.994888344632386 14.467923911028217 44.27300353077909 0 0 0
2665 27 1 13.251344829293771 11.331558857827645 28.511935233314222 0 0 1
8280 64 1 1.9574670594846864 0.34133746034446844 31.17214342935895 0 1 0
7506 59 1 4.072965766560909 17.286067644888526 34.320882194849055 0 0 0
7512 59 1 9.283209796295692 17.18812238488517 40.017496962261454 0 0 0
910 41 1 7.309462942052877 13.699524836671982 26.921300261511195 0 0 1
1456 15 1 17.60318083827345 21.393408795320518 39.363157651799625 0 0 0
44 1 1 4.1963205080150665 1.9385377805263972 28.09998003701775 0 0 0
3586 35 1 15.591838578867414 23.634981499739943 31.61323510091084 0 0 1
15 1 1 15.955434110418581 2.3028869440309276 43.01524547044153 0 0 0
2928 10 1 13.776570873860804 15.07943485459703 29.56822612233049 0 0 0
690 9 1 4.490963583590179 11.628548175402427 28.97809166268578 0 0 0
691 9 1 5.0711962466660125 10.72638295050111 30.10400332502539 0 0 0
692 9 1 5.998813130151514 11.56294860449928 31.08939348216355 0 0 0
693 10 1 12.825068277229498 12.477557914170701 33.72799798133857 0 0 0
694 10 1 13.808331421904855 13.40393834605821 34.50110387168674 0 0 0
695 10 1 14.386039996819356 12.67725426302543 35.70908927461849 0 0 0
696 10 1 15.353621477739143 13.502316878344445 36.65148733079045 0 0 0
697 10 1 15.817674488538675 12.685754189012457 37.88807083753391 0 0 0
8021 63 1 8.762136370780762 21.670891643255235 40.296778276596356 0 0 0
4056 39 1 1.3314566829231893 4.357953266992262 41.804998847130214 1 0 0
467 5 1 7.928215777666365 8.652520072448816 27.454923265478254 0 0 0
443 5 1 17.749067081125297 8.939772241650763 40.43020991392531 0 0 0
2361 23 1 15.598165822666221 6.058674770270142 31.159952119754273 0 0 1
1974 20 1 16.53637194610405 1.664478360546305 31.30347725448235 0 0 0
8051 53 1 2.1445046137753603 24.87343636678827 37.70766759764033 1 0 0
7047 55 1 0.6832670119802526 12.598439870765562 30.86801417047548 1 0 0
3107 50 1 14.921689530234255 20.078623831601508 30.326951192654494 0 0 0
913 10 1 9.22511728925024 12.603001578626563 30.101445493423736 0 0 0
914 10 1 10.398933588691811 13.299781031601642 30.736833031780797 0 0 0
915 10 1 11.021623474190362 12.511602398639923 31.894413199805392 0 0 0
916 10 1 12.016156131913887 13.293191624864258 32.71172299150473 0 0 0
917 11 1 5.97462618716281 16.040312924225958 30.97832243131016 0 0 0
918 11 1 6.3809694695164385 15.26938144423092 32.2401568264899 0 0 0
919 11 1 7.643557486487356 15.648236783369184 33.02830364078302 0 0 0
920 11 1 7.95799279050789 14.758354086030439 34.265935853506576 0 0 0
921 11 1 9.19379515205988 15.394740507362473 35.0076219313995 0 0 0
922 11 1 9.735495754531398 14.602011117797037 36.19077025448308 0 0 0
6374 18 1 1.5053728141852716 2.3347589852006445 36.93886875027114 0 0 0
1937 7 1 16.283992457130562 25.559845580976702 37.64920892646149 0 0 0
6960 9 1 2.698617601261332 10.55312843481189 38.71867870981693 1 0 0
925 11 1 12.62344622868932 15.38461209719398 38.78900878247556 0 0 0
3069 25 1 16.567485382067414 17.854593543935504 26.427783207622458 0 0 1
1686 18 1 15.469470665778783 24.716410962521024 42.98423039700373 0 0 0
5402 44 1 2.3741355634958587 17.746084466614835 43.71128082333642 1 0 0
1684 18 1 13.941543505790445 24.668205821817534 40.91319508755039 0 0 0
2895 10 1 17.04718398849591 14.881833144411631 33.25303029507493 0 0 0
8283 64 1 4.473790238580908 26.048046064930457 34.159228897181045 0 0 0
6603 53 1 12.376567538142524 3.885819819550495 43.90424011703224 0 0 0
8290 64 1 10.1429138167612 0.37277866653774616 40.940094895219346 0 1 0
2664 27 1 12.235161633242074 10.65633156085211 27.646489396076884 0 0 1
7722 26 1 1.7359708102376497 20.18298961273139 38.08897505078953 1 0 0
1196 12 1 17.292409049161535 17.097312063164196 39.73026885078134 0 0 0
481 9 1 15.993037488482846 10.142290792353185 44.07791877901424 0 0 0
1140 11 1 4.806527509191967 15.40137153398455 30.23755652311172 0 0 0
1188 12 1 11.130499440887856 16.99655091226882 31.571195481960224 0 0 0
1189 12 1 12.400061204576051 17.534090554374327 32.28747875677706 0 0 0
1190 12 1 12.678286385296298 17.05532544327793 33.627750103982635 0 0 0
1191 12 1 13.88274550882606 17.703856677252887 34.33202501202304 0 0 0
1192 12 1 14.138067625139808 17.178908380008053 35.707768073563386 0 0 0
1193 12 1 15.319522177223657 17.857553294046745 36.433382551119735 0 0 0
1194 12 1 15.78889132087851 17.11900690234831 37.70773802225098 0 0 0
6817 54 1 4.289616685934012 5.862974504289905 40.463179182783726 0 0 0
8049 53 1 0.7470559647750128 24.867200424501775 35.52017889177817 1 0 0
3144 32 1 12.425812973614622 19.307924516035165 27.305458994808866 0 0 1
43 1 1 2.980171349721635 2.520241901244787 27.360623811532513 0 0 0
2369 26 1 16.605955487913732 8.554777232023877 27.642731535923858 0 0 0
2357 23 1 12.277183041787957 6.0635702375806195 27.467263111937815 0 0 1
1933 19 1 9.34571499118908 0.32922337848843297 28.413392239378517 0 1 1
687 9 1 1.6015220540419526 10.692894888032496 26.555502001781097 0 0 0
5698 47 1 1.943493450530828 21.682901777614852 42.92705861159136 1 0 0
1223 12 1 9.575556769731433 17.02934784985036 29.551004158215306 0 0 0
1224 12 1 10.587172780768352 17.80384994796683 30.381749356863747 0 0 0
1225 14 1 5.752687997939883 19.943719058589576 31.36916469725579 0 0 0
1226 14 1 7.024683010211787 19.407273155896412 32.00252268811996 0 0 0
1227 14 1 7.406497634161608 20.15172205375601 33.314230555418725 0 0 0
1228 14 1 8.729628629405584 19.53121336612886 33.65995088989584 0 0 0
1229 14 1 8.941308252494132 19.660636761861635 35.160015998094664 0 0 0
1230 14 1 10.175862790542766 19.075584626591993 35.82242804792222 0 0 0
1231 14 1 10.544215749456056 19.683299130747653 37.20338319480719 0 0 0
1232 14 1 11.846599919219672 19.22487362554593 37.83917971108038 0 0 0
3814 36 1 16.522202622106345 0.19507915985273533 26.26588108625721 0 1 1
13 1 1 14.330310132650457 2.387445415309483 41.15311913458963 0 0 0
699 10 1 17.729690016164557 12.43657154717768 39.58646359950241 0 0 0
4057 39 1 1.473986499607856 4.139552184258185 43.25927504956448 1 0 0
2667 27 1 14.748204320013485 11.315016194240192 30.566536406989396 0 0 1
7503 59 1 1.6782783664491545 18.205647859380377 31.385582313100027 0 0 0
1446 14 1 4.166467826730974 19.739552046903285 27.8270468168662 0 0 0
8282 64 1 3.5986687324896103 0.2706040726332636 33.24766650716295 0 1 0
8050 53 1 1.3477752926037618 24.07619511033619 36.6809644762323 1 0 0
6815 54 1 2.6895722379715625 5.784446952472279 38.41712342198455 0 0 0
6959 9 1 1.5110634377771026 11.236733694115136 38.077006702642976 1 0 0
8020 63 1 7.690278727596737 22.411215428544285 39.51474634704205 0 0 0
1977 20 1 18.31894643056395 2.144496804023432 34.857798744647 0 0 0
1447 14 1 4.278423533423282 20.03897115701809 29.286413136438973 0 0 0
1448 14 1 5.5086596516753765 19.51996763916659 29.905750998419244 0 0 0
1449 15 1 12.480584273642723 21.795605439387717 32.174290955816694 0 0 0
1450 15 1 12.767576659907114 21.134576492327664 33.48019089853412 0 0 0
1451 15 1 13.964136210430214 21.859277970817647 34.246412660057686 0 0 0
1452 15 1 13.99958938139466 21.26855975264013 35.69259949854978 0 0 0
1453 15 1 14.854322162734338 22.040741211494236 36.60024413672704 0 0 0
1454 15 1 15.890520354419198 21.379357926578987 37.49186652991938 0 0 0
1455 15 1 16.625185412483532 22.219054917710494 38.587887737426485 0 0 0
8052 53 1 2.894398822821786 23.807383896767927 38.55896669570998 1 0 0
8053 53 1 3.737579462211008 24.605871223237568 39.55122076033007 1 0 0
1975 20 1 16.80389630858998 2.183673982145264 32.69106707929813 0 0 0
1233 14 1 12.179914046140144 20.066698653239307 39.067992316204744 0 0 0
3074 50 1 18.098433806429608 20.06873826405446 34.481681835332914 0 0 0
6961 9 1 2.957428591534607 11.068917634071969 40.1064400872378 1 0 0
147 2 1 13.863209338838319 4.721861663209101 34.720747992619174 0 0 0
3589 35 1 18.32209800751912 24.2073422293328 34.23273844494054 0 0 1
1670 15 1 9.404687966710906 21.561115246704848 29.644195703085128 0 0 0
1671 15 1 10.689980678380575 22.086504460556203 30.37089454058639 0 0 0
1672 15 1 11.102668365356879 21.354036307717834 31.66410176356588 0 0 0
1673 18 1 5.6273420261037765 24.179715346018465 29.858465916709143 0 0 0
1674 18 1 6.234259363638945 24.938656010707724 31.06871318848197 0 0 0
1675 18 1 7.479614942852216 24.199988288400803 31.581130794879762 0 0 0
1676 18 1 7.920023338878353 24.773053083806293 32.903219437142276 0 0 0
1677 18 1 8.984087091230379 23.939130124303922 33.70037380176646 0 0 0
1678 18 1 9.16485802618784 24.444428698562273 35.12512766887944 0 0 0
1679 18 1 10.253958968874906 23.702744783785338 35.98051471274645 0 0 0
1680 18 1 10.48980018963006 24.37356680624439 37.35329761234822 0 0 0
1681 18 1 11.532736716043672 23.57141874808327 38.06404346371825 0 0 0
1682 18 1 12.27483092179545 24.47519572932481 39.04863599577752 0 0 0
6381 18 1 7.474358430492007 2.1469166664184143 43.67474499135882 0 0 0
1138 11 1 3.5231192267121343 15.346022790733162 28.061443391647035 0 0 0
6379 18 1 5.838312303926295 1.6622792374542994 41.65776894330018 0 0 0
6917 55 1 2.8659903080474396 9.399467668502554 33.77830472132806 1 0 0
145 2 1 12.450881096087171 4.7087554897959905 32.75737318355391 0 0 0
6962 9 1 4.284415706181952 10.525025764837832 40.709741216757074 0 0 0
1894 18 1 3.075000601481783 25.043276926113073 27.133834533892962 0 0 0
8018 63 1 6.427559141933711 22.47109990905901 37.289983695628756 0 0 0
3583 35 1 13.830730130772917 24.22978898307689 28.251376713686895 0 0 1
2965 31 1 11.913833126223771 15.871929326016916 26.17189404803535 0 0 1
7502 59 1 1.141027458477872 17.470304048421912 30.165087544630776 0 0 0
1895 18 1 4.239786623196351 24.37060842382203 27.85114136000558 0 0 0
1896 18 1 4.57305846225404 25.027171558698583 29.16961559668973 0 0 0
1934 7 1 14.190645676112856 26.28376835179558 34.39925056689862 0 0 0
1935 7 1 14.602372222959772 25.46299703763927 35.64703057140724 0 0 0
1936 7 1 15.46676123050173 26.32788283294751 36.61787515837709 0 0 0
1137 11 1 3.0260074026602477 16.189765278760508 26.859178372870872 0 0 0
911 41 1 7.664560296303341 12.809879142129361 28.101843379809427 0 0 1
6819 54 1 5.863739080756047 6.043484136530455 42.55729230048949 0 0 0
3145 32 1 13.351484664754148 19.96706337535604 28.215642784525038 0 0 1
8025 63 1 12.008377345964435 21.556911468562525 44.082767474230195 0 0 0
2362 23 1 16.302049112602756 6.813178066488267 32.29224660370517 0 0 1
6150 6 1 2.0595443253275976 26.246156892822864 42.74332848901327 1 0 0
12 1 1 13.648127046083268 1.6127320577299518 39.96910495319355 0 0 0
8056 53 1 5.52633161161099 23.78270811164206 42.968833187154246 0 0 0
3070 25 1 17.0369196501804 17.272028381550843 27.725153948392318 0 0 1
1966 7 1 9.981127711051927 26.216873587602628 29.59399345551548 0 0 0
1967 7 1 10.907979503748743 0.4517607680100428 30.449614833714065 0 1 0
1968 7 1 11.40789458030081 26.255172871162138 31.673282676763172 0 0 0
1969 7 1 12.736937507627834 26.574633551655275 32.39084616469643 0 0 0
1970 7 1 13.04416289886598 25.717837181774808 33.5906019592898 0 0 0
1971 20 1 13.608300067816831 2.359399911347076 28.627581771870478 0 0 0
1972 20 1 14.883344739633461 1.785804422275223 29.212911468471642 0 0 0
1973 20 1 15.25267751079017 2.2372213623995587 30.646222244636377 0 0 0
1940 7 1 18.374464592924788 26.282360316533396 40.79405013363382 0 0 0
923 11 1 11.013597182122144 15.24416268637279 36.76917683521527 0 0 0
1931 19 1 7.783078654933677 0.2980595333821982 26.42241114805657 0 1 1
8291 64 1 10.586436266661062 26.285067746443413 42.23692132329233 0 0 0
2966 31 1 12.014598226956121 15.258896701518148 27.516753910459997 0 0 1
4948 43 1 1.3657559072473853 12.504421738817655 43.37052950311278 1 0 0
2030 20 1 13.167251789479796 1.5238898606432802 27.431586459959018 0 0 0
148 2 1 14.6703763707945 3.8493351647818455 35.67544480719566 0 0 0
1139 11 1 4.45835192332339 16.17817756899391 29.012237718149873 0 0 0
7051 55 1 4.018281462987132 12.943383685020052 34.8899238481922 0 0 0
7281 3 1 5.516105766542366 15.630973893864764 41.52888656872234 0 0 0
928 11 1 14.50561410729381 14.540369847190046 42.17375287801069 0 0 0
912 10 1 8.806134952933185 13.349728915675682 28.88436746279613 0 0 0
2358 23 1 12.772030387225813 6.991488131800737 28.579552488760843 0 0 1
7728 26 1 6.959801977531731 20.177109727550278 43.45603012090028 0 0 0
698 10 1 16.941156268644637 13.379501472061639 38.692568595682474 0 0 0
150 2 1 16.427047629698098 3.777940421999596 37.46201114592629 0 0 0
144 2 1 11.832626749162987 3.9700120759559843 31.54859212680674 0 0 0
3584 35 1 14.409159861028346 23.512672227691283 29.410908378675767 0 0 1
4949 43 1 2.5069249088983465 13.254402588760422 44.168273797001746 1 0 0
7515 59 1 11.148468604022224 17.710238837971783 43.41578590826597 0 0 0
7275 3 1 0.7523986995521095 15.869696139007553 35.47112414863408 1 0 0
6818 54 1 4.957130799728653 6.782854706795168 41.56528267425582 0 0 0
6376 18 1 3.2151074991371718 2.4074517765575902 38.91508941790189 0 0 0
7507 59 1 4.635709362106821 18.141455094258372 35.465208745102444 0 0 0
6965 9 1 6.183590351546042 11.18429330709849 44.0729308495505 0 0 0
1669 15 1 9.079628488195793 22.333249392162152 28.329177221090884 0 0 0
8287 64 1 7.516804569249471 26.155678626271776 38.17445709789322 0 0 0
7514 59 1 10.777642689071277 17.16189241564165 42.062429854308355 0 0 0
6590 53 1 1.5827866786986005 4.716212330299734 31.682435369856577 1 0 0
1938 7 1 17.106112524359748 26.34581478883007 38.614886984706075 0 0 0
2068 21 1 18.012895787072697 4.505374349023869 28.701600654250463 0 0 0
3072 50 1 16.54191863418034 20.039473726538905 32.39955692177449 0 0 0
6964 9 1 5.930691922270297 10.628550047918194 42.61711993033964 0 0 0
1939 7 1 17.9741896633124 25.484906920473875 39.52697445289746 0 0 0
2671 47 1 16.78661830384443 13.65554921702965 26.5704075595135 0 0 0
688 9 1 2.8794332857728473 11.386282369753728 27.046996681889798 0 0 0
7055 55 1 7.372399996854913 12.953670450330986 38.68524646269035 0 0 0
3587 35 1 16.561046781861887 24.486210651478398 32.46636135768558 0 0 1
2893 10 1 15.360979836703244 15.042900206202653 31.484902522010618 0 0 0
2894 10 1 16.45959860797689 15.718392624002846 32.1295972184758 0 0 0
3075 50 1 18.688678053048758 19.33590461550294 35.68240978735242 0 0 0
1236 14 1 14.755569823572367 19.479318731145906 41.99137012054347 0 0 0
8011 63 1 0.862626188902943 21.83047007346905 30.33135686786729 0 0 0
1457 15 1 18.50603490839861 22.079412310789614 40.362850523043505 0 0 0
3590 35 1 18.728373602102216 23.643342340925276 35.6087430619824 0 0 1
390 3 1 3.044559526687274 6.960224802304978 26.99857169259319 0 0 0
181 3 1 14.973816935076428 5.630156379407323 42.077961816346736 0 0 0
1197 12 1 18.446607572240907 17.699902627026454 40.55522168473432 0 0 0
6594 53 1 4.864012553069757 4.732512372880629 35.409949478878886 0 0 0
480 9 1 14.793067951732674 10.818481938362897 43.47137557899071 0 0 0
2629 14 1 16.38982526726065 11.150549408173212 32.42983506010273 0 0 0
7048 55 1 1.3135578391398712 13.489223853631993 31.928725599300947 0 0 0
2631 14 1 18.034414155825704 11.036024400295197 34.36097921745861 0 0 0
183 3 1 16.718744855805234 5.51625197582907 44.03202764421951 0 0 0
7726 26 1 5.323501272838984 20.04779873923376 41.64931021220791 0 0 0
6915 55 1 1.285518411201038 8.991364438892615 31.584276633772316 1 0 0
6814 54 1 1.9659343860605134 6.721941383612098 37.49080605505695 0 0 0
441 5 1 16.16625835599518 9.033415868023132 38.38981781274981 0 0 0
1667 34 1 7.847045685872417 22.43448443075074 26.14782041298925 0 0 1
8012 63 1 1.667450067148061 22.697432120663123 31.264111042489105 0 0 0
14 1 1 15.291143814265054 1.5199983150795802 41.905292746458414 0 0 0
7282 3 1 6.005220945070459 14.891489096588172 42.79642059872113 0 0 0
5401 44 1 1.7579903726367232 16.984215521451866 42.555148812023035 1 0 0
7060 55 1 11.612984078620121 13.215288294588719 43.53442388898914 0 0 0
7049 55 1 2.2601485185192063 12.771049907070006 32.84590838306856 0 0 0
478 9 1 13.8543933649707 10.815543346157725 41.21141187440106 0 0 0
2364 24 1 17.974314958760594 6.823794666570204 34.16831466499802 0 0 0
1685 18 1 14.957576613143798 23.92496549212297 41.805648800055316 0 0 0
7721 26 1 1.5013016216225332 19.6770411767277 36.66621438121214 1 0 0
2363 24 1 17.39699041756543 6.054062104319218 32.9799690371108 0 0 0
2673 47 1 18.114893289863875 13.721428189863975 28.52471432412578 0 0 0
3150 24 1 18.368523177349037 21.546768679503057 29.50231300578237 0 0 0
6918 55 1 4.043605896532994 8.75398931016964 34.403370960922175 1 0 0
8289 64 1 8.926904860217274 26.33826078613759 40.26605486279481 0 0 0
8022 63 1 9.341941715033087 22.494297358686573 41.464175800769794 0 0 0
6380 18 1 6.052198294552669 2.31683655183136 43.07481282707253 0 0 0
6958 9 1 1.1436858550898543 10.735115001522905 36.67403692454972 1 0 0
929 11 1 15.57524807318267 15.120732442641312 42.98531606433116 0 0 0
700 10 1 18.52533876019135 13.215508541972067 40.510919359752165 0 0 0
182 3 1 15.778111163260629 6.359367431158393 43.17293496100491 0 0 0
1687 18 1 16.198346390636225 23.77394029751634 43.93200055042668 0 0 0
8024 63 1 11.011554002526855 22.40233649518087 43.326334204595284 0 0 0
7511 59 1 8.094835786299523 17.890474770418535 39.405969327563625 0 0 0
6378 18 1 4.570289070252658 2.225056306063606 41.027486865516394 0 0 0
8281 64 1 2.889879125882312 26.22759929529971 32.10525821698242 0 0 0
140 2 1 8.203060653911047 4.05228872540672 27.87418378371275 0 0 0
6813 54 1 1.2220961212784252 6.08838486361091 36.347342862390455 1 0 0
7510 59 1 7.63773873004431 17.409415947431615 38.020164712397225 0 0 0
149 2 1 15.4209310286601 4.584141515171113 36.73761541262601 0 0 0
7509 59 1 6.325346008815076 17.990241926272883 37.45409516730861 0 0 0
7057 55 1 8.808692040899848 12.801802767808235 40.69757559480717 0 0 0
7054 55 1 6.590006341075601 13.936837040380368 37.834617943876694 0 0 0
6589 53 1 1.075516639701275 4.052943212013879 30.459257232664378 1 0 0
8015 63 1 4.230647569974151 21.877994879129115 34.148920847158536 0 0 0
6916 55 1 2.5143847459012414 8.725272071321847 32.459329068963434 1 0 0
8019 63 1 7.5368882138269155 21.799440442916627 38.14792034540136 0 0 0
3106 50 1 14.19729530956112 19.219126428214366 29.23240819243287 0 0 0
8054 53 1 4.241753363029813 23.734852754304534 40.70737780408732 1 0 0
5699 47 1 2.46756326475549 22.2393078668113 44.27606932699676 1 0 0
6373 18 1 1.1954893359125216 1.644101764835998 35.64850459670659 0 0 0
7508 59 1 5.665384767799816 17.302280204718272 36.24054797930606 0 0 0
7723 26 1 2.897838781416288 19.386058035935324 38.76027367521016 1 0 0
6884 40 1 1.0484518449690936 8.367063441047891 30.200825069958164 1 0 1
8288 64 1 8.353949723447762 0.3521623674916956 39.10888637147814 0 1 0
2927 10 1 13.391094390855152 15.553335417654774 28.19315982414457 0 0 0
8286 64 1 6.872499836335772 0.3268528100351836 37.09065075940538 0 1 0
7058 55 1 9.890564673850784 13.421926633874884 41.58684010120954 0 0 0
7505 59 1 3.025362408355764 18.072255997046767 33.528110854821826 0 0 0
1237 14 1 15.622959742998043 20.091851351434677 43.06523808513195 0 0 0
7056 55 1 8.129378014704988 13.704725758133025 39.718914269505646 0 0 0
6591 53 1 2.7205579018520836 3.9680965131460355 32.35969423764695 0 0 0
8014 63 1 3.092750819888011 22.532686615448316 33.40774370128729 0 0 0
139 2 1 7.084164507015044 4.850527495077441 27.276595653106483 0 0 0
3582 35 1 12.665464397809862 23.597044295323663 27.381588994387197 0 0 1
2896 10 1 18.00113124075324 15.54795496168042 34.19596996769013 0 0 0
926 11 1 12.936997624118778 14.753292245472638 40.19806915794852 0 0 0
6820 54 1 6.624466195033564 6.995147556917734 43.5773126912005 0 0 0
3148 24 1 16.852944937329614 22.16985417472847 27.364339900949027 0 0 0
7059 55 1 10.356239377264096 12.700000622073187 42.876504981850324 0 0 0
2929 10 1 15.045938873273686 15.614050317835156 30.040647769050228 0 0 0
6812 54 1 0.4467879497224133 7.11188917319356 35.44479778748031 1 0 0
8017 63 1 5.833752590160402 21.781830214668105 36.10319191293771 0 0 0
924 11 1 11.373421231369951 14.699866443510937 38.13952057369339 0 0 0
1234 14 1 13.414001381004018 19.61455864922567 39.8905845022078 0 0 0
7053 55 1 5.746907450063207 13.117432463322023 36.849969627549754 0 0 0
1683 18 1 13.337316461597645 23.755855176123713 39.87304092586382 0 0 0
3815 36 1 17.351850412082904 25.978617109603192 27.141312242399092 0 0 1
6595 53 1 5.967179956742101 3.959016038927228 36.11289799222614 0 0 0
6596 53 1 6.2850051659075765 4.575077268801614 37.383669147221134 0 0 0
6597 53 1 7.438429061329408 4.06751788125575 38.234063610387146 0 0 0
6598 53 1 7.648509314174563 4.734073675249837 39.523671077149274 0 0 0
6599 53 1 8.749597902285243 3.8982108945524905 40.217553455330254 0 0 0
6600 53 1 9.41440409636631 4.585849296513747 41.42066390309962 0 0 0
6601 53 1 10.479960826584495 3.8175884402391262 42.11871616569067 0 0 0
6602 53 1 11.135531302691799 4.568921563702978 43.24361730007464 0 0 0
2368 26 1 15.952517528617884 9.573844177102497 26.72791658315971 0 0 0
1222 12 1 8.88999043585519 17.920806531105182 28.505097288837735 0 0 0
1221 12 1 7.808504109327112 17.259692055361935 27.68484014572197 0 0 0
8057 53 1 6.705250405283407 24.45008707174153 43.77034198581413 0 0 0
3073 50 1 17.06323477701106 19.291249236972384 33.65302451605123 0 0 0
8016 63 1 4.7211167928710775 22.62031090640978 35.41437557872332 0 0 0
4510 43 1 1.1543462554488302 8.159857015978558 43.37151348723272 1 0 0
7278 3 1 2.7925418625639438 15.095750605562108 38.72948035253278 0 0 0
8013 63 1 2.5313412556271455 21.8514993147013 32.17391111394932 0 0 0
6592 53 1 3.095270347831155 4.5247000312247065 33.732275370080664 0 0 0
7516 59 1 12.567976270072874 17.32542961754556 43.96440251893347 0 0 0
8055 53 1 5.129422914625115 24.475267235605322 41.67427485521495 0 0 0
7729 26 1 8.008296810052354 19.386513540190148 44.272448257318196 0 0 0
7724 26 1 3.3632569132200025 20.06548347710946 40.03955187536202 0 0 0
7052 55 1 5.015395264553765 13.804803216930159 35.64686005144779 0 0 0
6377 18 1 4.374019615237041 1.7559574387189387 39.61810212518955 0 0 0
1235 14 1 14.052922126531188 20.49388607869526 40.96538643291921 0 0 0
7279 3 1 3.9158203515703245 15.718732480722604 39.5805440482747 0 0 0
7727 26 1 6.417019523583641 19.26205499127957 42.344675433259965 0 0 0
927 11 1 14.135935389499394 15.344332496329415 40.90851071246297 0 0 0
6963 9 1 4.526438262765559 11.028767477809161 42.12273206812158 0 0 0
6920 55 1 5.685671448119805 8.503529378046423 36.46149129643863 0 0 0
6921 55 1 6.1102293483896135 9.338549635726505 37.679232293359235 0 0 0
6922 55 1 7.163992120309835 8.452625671545574 38.39518619084669 0 0 0
6923 55 1 7.59267397176657 9.161940344918635 39.678415502750305 0 0 0
6924 55 1 8.521749432854271 8.3272519671977 40.53687566955639 0 0 0
6925 55 1 9.03834754238818 9.103561880752935 41.749261362011254 0 0 0
6926 55 1 10.054380862826534 8.33072762747935 42.453366840503286 0 0 0
6927 55 1 10.573738651791697 8.94328215306028 43.7125087590496 0 0 0
7501 59 1 0.24212584844887008 18.381430963118863 29.23626183877118 0 0 0