LAMMPS data file via write_data, version 23 Jun 2022, timestep = 11111117

9706 atoms
2 atom types
9690 bonds
3 bond types
9674 angles
3 angle types
9658 dihedrals
3 dihedral types

0 36.89775039 xlo xhi
0 26.67072 ylo yhi
11.574054096992512 225.17755030299853 zlo zhi
0 6.720431088759232 0 xy xz yz

Masses

1 14
2 15

Pair Coeffs # lj/cut/omp

1 0.0914 3.95
2 0.1947 3.75

Bond Coeffs # harmonic/omp

1 449.5 1.53
2 449.5 1.53
3 449.5 1.53

Angle Coeffs # harmonic/omp

1 62.0967 114
2 62.0967 114
3 62.0967 114

Dihedral Coeffs # opls/omp

1 1.411 -0.271 3.145 0
2 1.411 -0.271 3.145 0
3 1.411 -0.271 3.145 0

Atoms # molecular

1 2 1 8.059997956440373 1.8794655292881743 20.792318144214157 0 0 0
2 2 1 9.516383671543789 1.8464425197300032 21.331837863407237 0 0 0
3 2 1 9.723989925839525 1.9522309167839296 22.901343874340043 0 0 0
4 2 1 11.147503106087866 1.8956804907834595 23.329595636431527 0 0 0
5 2 1 11.258498756894866 1.8033559244244233 24.791606355028165 0 0 0
6 2 1 12.685489777585502 2.0519948978309968 25.385176480074065 0 0 0
7 2 1 12.847367511729873 1.6635377574217696 26.88493887793022 0 0 0
8 2 1 14.180611311794753 2.032320068694077 27.568761526759463 0 0 0
3801 24 1 17.09747344627963 18.192779957890966 13.373584664450394 0 0 0
8426 2 1 5.428897128812612 12.423911367668566 21.546253787570713 0 0 0
5417 34 1 1.3825642349519722 8.869645391051696 29.68387269381412 0 0 0
837 8 1 3.7324016523579457 10.838424693515252 13.175673454069873 0 0 0
1209 9 1 11.622339211297469 13.009734313673919 18.862470132625678 0 0 0
2283 56 1 14.490499097925094 26.323423256155813 22.434332211934695 0 0 1
4559 29 1 13.12363644230848 23.987641054723742 14.557281551018939 0 0 1
2285 56 1 15.900528489365911 26.291954854750703 24.589489487054927 0 0 1
821 5 1 11.157225890524636 9.121894800577723 17.281340307850954 0 0 1
2819 9 1 18.492561385324187 7.272007247106951 21.673253323028625 0 0 0
220 2 1 4.897373555080918 2.0075562483051 15.040526705683888 0 0 0
221 2 1 5.002832627176039 1.482761919882315 16.500916726336378 0 0 0
222 2 1 6.200762548802337 2.098201354621112 17.184581438182846 0 0 0
223 2 1 6.514611978190286 1.6370293201098391 18.687836793453066 0 0 0
224 2 1 7.92838976288211 1.8580468105461636 19.25881735138735 0 0 0
304 6 1 11.243657737160651 4.769259493516412 17.318817583565846 0 0 0
305 6 1 11.593364884495449 4.072558311829911 18.73725559219852 0 0 0
306 6 1 12.81146970710305 4.576509909732434 19.488355630232054 0 0 0
307 6 1 13.127477356857902 4.083508050668463 20.886528479979997 0 0 0
308 6 1 14.36890178420535 4.686785007451105 21.58491211861164 0 0 0
830 6 1 17.660309707829068 8.2997637198413 26.738197148018514 0 0 0
7895 7 1 2.303714310009643 8.378633472094348 17.553402603165562 1 0 1
3719 22 1 12.100392190282355 15.4128886003855 12.065540392714599 0 0 0
602 57 1 3.57515602518626 6.727529312925156 13.264389065163094 0 0 0
1133 35 1 10.155278697458593 12.994564784564634 16.779085270223163 0 0 1
2278 56 1 10.700975803333899 0.34729936817704576 17.327320309848403 0 1 1
9281 61 1 2.35675969436443 24.047889656987294 25.946788835484785 0 0 0
7084 47 1 3.4539360791703246 25.580539092607648 32.92648911494645 0 0 0
601 57 1 2.747411856265881 5.850071514554487 12.336593520539422 0 0 0
379 6 1 8.148533537816359 4.479038578377894 13.34979233790904 0 0 0
380 6 1 8.472275602448061 4.016387463227863 14.726246944843483 0 0 0
381 6 1 9.551097745300643 4.806004700869844 15.514269806830727 0 0 0
382 6 1 10.122192445172683 4.009846046731999 16.662980280258704 0 0 0
383 57 1 6.963234896641647 5.8178239890967465 18.713391800953403 0 0 0
384 57 1 7.743954438927932 6.589720153090427 19.77904233114159 0 0 0
385 57 1 8.464868079198654 5.722196405190705 20.831208488016443 0 0 0
386 57 1 9.28243208426329 6.540758703087144 21.74762237987339 0 0 0
387 57 1 9.928002923696052 5.733404857237826 22.896494808978055 0 0 0
388 57 1 11.029999829879795 6.59509701538614 23.484734412119753 0 0 0
389 57 1 11.560281484244577 5.8841965219083505 24.798043267499686 0 0 0
390 57 1 12.80099008408323 6.567655925675045 25.38264537092693 0 0 0
391 57 1 12.932892527659543 6.123393952913845 26.846431488283514 0 0 0
392 57 1 14.169679863359935 6.490138308899376 27.633000403190163 0 0 0
393 57 1 14.215180871702733 6.138579961454931 29.09212535454399 0 0 0
394 57 1 15.669656093778292 6.169042264309455 29.5576021786915 0 0 0
9189 60 1 3.3043533627800747 22.08297204858633 19.142125441479173 0 0 0
8512 60 1 3.976629948860391 15.122730194829991 27.652322276824815 0 0 0
1995 14 1 16.04282520806335 23.941579080789744 30.858438177286864 0 0 0
4483 28 1 17.63134741159204 24.118980907110267 20.44806979472002 0 0 0
819 5 1 9.76705814721198 9.169945664277888 15.34330071131954 0 0 1
5419 34 1 2.7849391384872098 8.766645202489858 31.78933051705035 0 0 0
7697 50 1 3.9728736203019026 5.643871587923362 27.506617364638394 0 0 0
603 57 1 4.198809521206182 5.919638623778563 14.393124932347211 0 0 0
604 57 1 5.064915613367561 6.800066333205422 15.30721248253657 0 0 0
605 57 1 5.64083605877286 6.0378855573827055 16.468509933532253 0 0 0
606 57 1 6.300448752044597 6.684566656621963 17.646987667157955 0 0 0
1753 12 1 2.181493980367425 19.301067981655773 12.77341677386242 0 0 0
7700 50 1 6.687949000098659 6.359419256669129 30.286429933403515 0 0 0
2815 9 1 15.349799566702373 6.940978078268352 17.675523512097858 0 0 0
2585 15 1 13.059428981698494 1.660687869345193 14.162024043111614 0 0 1
836 8 1 2.511016581914904 10.179988480934718 12.573829606913053 0 0 0
1376 54 1 3.230391143214247 15.472314882455889 13.290062654104151 0 0 1
7587 48 1 3.779696329528708 3.619378371525357 20.996956854701175 1 0 0
817 5 1 8.344694777303944 9.05729734142453 13.181129518968614 0 0 1
6632 55 1 2.5374077266644512 22.059530454289245 32.087601340238606 0 0 0
1210 9 1 12.676087467192952 13.753468904644063 19.64887357374856 0 0 0
7908 31 1 11.544868298598795 8.10296988206866 31.19036823270088 0 0 0
7588 48 1 5.159454411250537 3.7464345049614765 21.593670376195938 1 0 0
1132 35 1 9.72077132214144 13.59097373022231 15.418880498896844 0 0 1
8818 57 1 10.531802522878934 17.446781584095717 29.633405724423163 0 0 0
827 6 1 15.666299298637794 9.364727678715111 23.425032002438705 0 0 0
828 6 1 16.40045305015034 8.555914609825267 24.547244422301688 0 0 0
829 6 1 17.062327485407348 9.28835024774863 25.75249367734991 0 0 0
3417 19 1 12.449504510545264 11.769300365286599 13.196541406081362 0 0 0
1222 61 1 15.875147999528863 14.925516829875402 30.810950725158637 0 0 0
8435 2 1 11.632112345781522 12.45903655612715 31.33430952299153 0 0 0
1375 54 1 2.2224785244971454 14.625078280741498 12.516294534138073 0 0 1
5866 39 1 3.8312913250988174 12.70203676902265 32.375700075771945 0 0 0
3720 22 1 12.286666622469296 15.887240978173482 13.542891880504222 0 0 0
2280 56 1 12.26445995075716 0.5979589338163941 19.325675272140387 0 1 1
3193 4 1 17.73482215284448 8.543982685439252 14.072139439884069 0 0 1
838 8 1 4.144902581110158 10.167410497788337 14.525894421139013 0 0 0
839 8 1 5.3646459382216465 10.90338285617084 15.122972788400952 0 0 0
840 8 1 5.713820218458971 10.2566632859201 16.44262648070085 0 0 0
841 8 1 6.777036422665552 10.939376369872118 17.2662488553175 0 0 0
842 8 1 7.212885115095994 10.04691957766005 18.421931503043766 0 0 0
314 6 1 18.840214842589774 4.710862984071173 27.46388895264574 0 0 0
2362 14 1 18.802078581973692 0.07858366348101928 27.27747415695621 0 1 0
3421 20 1 18.445483985525563 13.637305883530829 15.312368045810786 0 0 0
5418 34 1 2.250303859670146 8.003329539018775 30.60684655310366 0 0 0
825 5 1 14.16064694481208 9.246104235248206 21.388670823118815 0 0 1
8808 57 1 2.7343366080902154 17.465703104293034 19.57100813000392 0 0 0
2818 9 1 18.1849035020149 6.854346816988422 20.274068250908115 0 0 0
3201 19 1 18.291906859366172 11.709902827444603 21.555865497160546 0 0 0
4034 28 1 13.696512887278967 20.464852689301384 15.712553124803105 0 0 0
4032 28 1 12.557545665449597 20.531502552805026 13.382426491026711 0 0 0
9285 61 1 5.667405609932436 23.950752330303818 29.964154164114817 0 0 0
1134 9 1 14.868815460030985 12.921099128675795 22.659162530061316 0 0 0
1135 9 1 15.994786801846843 13.641668049007437 23.456242156228683 0 0 0
1136 9 1 16.534927169815408 12.867562079192298 24.649712079235393 0 0 0
1137 9 1 17.24696373929281 13.788382855767354 25.66621115969807 0 0 0
8421 2 1 1.462744883997559 12.01780261071261 16.662765002517293 0 0 0
6254 52 1 2.387176031769178 17.166153851773945 30.094707299991942 0 0 0
7082 47 1 2.044401428656619 25.539668366566136 30.91292987790085 0 0 0
2808 18 1 16.420919441664104 4.011537557057637 11.749955792312363 0 0 1
2816 9 1 16.623567222741677 6.564084623564259 18.458966370751398 0 0 0
2279 56 1 11.223859987659658 26.37238511039327 18.63840060748056 0 0 1
4569 22 1 17.709051488494502 26.110767580008698 14.256114051065808 0 0 0
1978 45 1 8.802743053017002 21.684174763577857 14.221620872326802 0 0 0
9502 51 1 4.601486107417785 26.53223397404996 21.90550381491759 0 0 0
4567 22 1 16.29825641315293 26.127944702986795 12.116314413782327 0 0 0
8131 39 1 2.640206096443827 10.584051033907183 25.555018542673494 0 0 0
4024 24 1 16.741194607693604 17.356422067353964 12.113788643185703 0 0 0
1211 9 1 13.058432932414068 13.066717336440602 20.891809526276063 0 0 0
1212 9 1 14.295337910960335 13.722624839277879 21.452818298480196 0 0 0
1213 61 1 9.318423533234743 15.337027869672104 21.46959055456213 0 0 0
1214 61 1 10.057151781819002 14.503955909315149 22.560551721089276 0 0 0
1215 61 1 11.129515385557577 15.306486064663284 23.30102128487227 0 0 0
1216 61 1 11.734655910419939 14.531756392965992 24.47632586912978 0 0 0
1217 61 1 12.433940989710733 15.382725612560888 25.562244660346295 0 0 0
1218 61 1 13.20843375727079 14.621709092623105 26.683983848319805 0 0 0
1219 61 1 13.692227093636049 15.621195927664836 27.71138376865188 0 0 0
1220 61 1 14.476938021105086 14.878745777217429 28.739856849433046 0 0 0
7512 49 1 2.1803372685593305 3.8610421474435257 17.52860496708657 1 0 1
5865 39 1 2.5410966359190783 13.31431539684857 31.85244446450926 0 0 0
3420 20 1 17.73755440235419 12.895292454678144 14.161276916075934 0 0 0
8897 44 1 5.4685187128827515 18.715459541650887 28.584571004874036 0 0 0
9510 51 1 10.31621180811702 0.29782368743371146 30.04002716826523 0 1 0
846 8 1 10.140297868769778 10.133389862710633 22.626860316816497 0 0 0
8812 57 1 6.020841667003201 17.523927340814623 23.652813078444815 0 0 0
5862 39 1 0.6976960669512028 12.64021893775214 28.41443668514918 1 0 0
1977 53 1 7.746294237688232 22.388171544264722 13.362606937413224 0 0 1
7586 48 1 3.7035676884652298 3.6436955496076746 19.54758697060075 1 0 0
1287 61 1 5.32641820762069 14.883805056881176 16.549985394750422 0 0 0
1288 61 1 6.438931851868903 15.532207905375161 17.277029225523787 0 0 0
1289 61 1 6.649895637593367 14.900394105210648 18.663396910317974 0 0 0
1290 61 1 7.868733560523332 15.483866162835533 19.33114878240893 0 0 0
1291 61 1 8.276044041713796 14.672806846053994 20.553489673275266 0 0 0
1456 11 1 9.1135899936618 18.113197302538694 15.481817798434573 0 0 0
1457 11 1 9.973008440046796 17.325922029556324 16.453361941377796 0 0 0
1458 11 1 10.770992991323947 18.147094119665876 17.41320535082066 0 0 0
1459 11 1 11.66909792725563 17.397173565845883 18.399878383433794 0 0 0
1460 11 1 12.34536923803568 18.273651947184874 19.415465718774115 0 0 0
1461 11 1 12.967354341950397 17.517756084818664 20.632879389255116 0 0 0
1462 11 1 13.830689771328231 18.378716667073125 21.527021745491105 0 0 0
1463 11 1 14.56866837731077 17.573286496058444 22.606744765282137 0 0 0
1464 11 1 15.314314477477806 18.3681181471914 23.659107237796583 0 0 0
9498 51 1 1.6197406123801086 26.54019274463743 17.823309532779646 0 0 0
4033 28 1 13.156182149783769 19.72013735403195 14.48693853418837 0 0 0
4188 24 1 16.574951101827153 21.719830060749615 12.317151760515156 0 0 0
3803 24 1 18.462690092049616 18.119781735481016 15.556295217991043 0 0 0
313 6 1 17.671822741639467 3.8603895295274313 26.967363075605547 0 0 0
2201 14 1 2.233117817169062 23.393644760388433 12.457948487666796 0 0 0
7594 48 1 9.541735269373081 3.853151874629267 27.776269898258548 0 0 0
1767 45 1 17.864308202096197 22.679812937289093 28.037368464131305 0 0 0
1534 11 1 8.26059248597116 17.240408588754484 14.59986032112193 0 0 0
1535 12 1 6.743635001718041 19.61683599639558 18.564506921385036 0 0 0
1536 12 1 8.092216851839767 19.987127640870774 19.17104479673235 0 0 0
1537 12 1 8.519939176622604 19.289638538246983 20.478756944946824 0 0 0
1538 12 1 9.724272398949958 19.951196004138108 21.18170969310227 0 0 0
1539 12 1 9.867140035265606 19.315866883890447 22.606570372800363 0 0 0
1540 12 1 10.767995252710962 20.08721187395538 23.54936382407707 0 0 0
1541 12 1 10.957415086669343 19.312547697780616 24.81944258315193 0 0 0
1542 12 1 12.115550174494677 19.89862322165677 25.62293416229958 0 0 0
1543 12 1 12.773044492792506 19.174165743993118 26.801620585205356 0 0 0
1544 12 1 13.980299823127336 19.829230195694567 27.51100578944351 0 0 0
1545 12 1 14.525679216570236 19.090856278940404 28.73689505220624 0 0 0
7893 7 1 0.8407008590216554 8.102315331903958 15.487877070714447 1 0 1
3416 19 1 11.609369232674432 10.883598066411958 12.405944401875473 0 0 0
1286 61 1 4.814466935917381 15.558779862434017 15.217089799317085 0 0 0
7593 48 1 8.082664434457397 3.9273405323581008 27.298289940073225 0 0 0
822 5 1 11.670883187638676 8.339432607067957 18.50861422830149 0 0 1
823 5 1 12.622303804360964 9.185649498919785 19.41192992542141 0 0 1
2273 56 1 6.565553383552275 25.921722784480913 12.305210375694553 1 0 1
4562 29 1 14.988607315464856 24.675371493704688 17.866244521076556 0 0 1
378 6 1 6.957279914769124 3.7403738152703823 12.83744582098253 0 0 0
7081 47 1 1.230761090265819 26.368512214531396 29.971978805482422 0 0 0
1757 12 1 5.191003783748926 19.497254029426056 16.705792054110347 0 0 0
1758 12 1 6.449964481136079 20.16619300645544 17.174534300943666 0 0 0
1759 45 1 12.141775146352277 22.832073139455623 19.790944202720713 0 0 0
1760 45 1 13.18162015415988 21.94683605561591 20.548955453307933 0 0 0
1761 45 1 13.859116255731879 22.721843095255448 21.660517266136193 0 0 0
1762 45 1 14.655952855715356 21.955028471906726 22.67216931654908 0 0 0
1763 45 1 15.128893034183637 22.869096065524896 23.83628007032783 0 0 0
1764 45 1 16.119870461727054 22.083653139494213 24.64466723404012 0 0 0
3802 24 1 17.928200659443615 17.37121137717148 14.347940945263044 0 0 0
1223 61 1 16.717378240529925 15.71275430422257 31.750751212302383 0 0 0
855 8 1 16.695025418500077 11.497256377252357 31.933051241708807 0 0 0
3419 20 1 17.167196684066866 13.747808640334776 13.059791652037497 0 0 0
8805 57 1 0.7021410104115742 16.92405673948312 16.28882075248641 0 0 0
7701 50 1 6.863602437289858 5.780307570113632 31.661989227934825 0 0 0
311 6 1 16.174594320747346 3.7803763779806485 24.904521183518312 0 0 0
4036 28 1 15.345680917397994 20.38001605261156 17.565111243280732 0 0 0
1533 11 1 7.699273096294764 18.051536802020426 13.385475473247073 0 0 0
1980 45 1 10.12542862304456 21.808930899192777 16.500267800874873 0 0 0
1981 45 1 10.560876642182357 22.59719195530817 17.702195736189637 0 0 0
1982 45 1 11.633968530782013 21.97788638995385 18.652698449291265 0 0 0
1983 14 1 7.102897647386531 23.709803872866516 18.578387116058092 0 0 0
1984 14 1 7.6748219676735046 24.67099591993717 19.626784588795672 0 0 0
1985 14 1 8.409056302136543 23.87244902126638 20.607911067274713 0 0 0
1986 14 1 9.19344136552387 24.71454095743675 21.619590016846317 0 0 0
1987 14 1 9.84841991732442 23.85553333008975 22.698672768368823 0 0 0
1988 14 1 10.573864675984456 24.77715058162384 23.711208771956628 0 0 0
1989 14 1 11.302303825493217 24.02089910333747 24.85970487191595 0 0 0
1990 14 1 12.43666813949099 24.652399113773846 25.70651672121421 0 0 0
1991 14 1 12.904775246145814 23.933580587432832 26.935719090463515 0 0 0
1992 14 1 13.735451551469348 24.81218896161088 27.82574578174954 0 0 0
1993 14 1 14.422138553138792 23.96030810837429 28.87123289640658 0 0 0
1994 14 1 15.234309915378471 24.75068984365395 29.86087794032911 0 0 0
12 2 1 17.000970513822367 2.1272921518475494 31.714940375879483 0 0 0
310 6 1 15.799859228392616 4.524440945553411 23.619603130763252 0 0 0
2284 56 1 15.749528061672375 0.1409023816494042 23.130259444227733 0 1 1
3418 19 1 13.070316257547873 10.913070440055147 14.299907255959095 0 0 0
2586 16 1 14.061085399773921 2.435647073467465 14.773725548503956 0 0 0
1466 11 1 16.764212653414443 18.35923830461209 25.727048551084586 0 0 0
2202 14 1 3.1616118969511366 24.166353289072614 13.36659466530946 0 0 0
2203 14 1 3.665696841988142 23.57129900506538 14.744245964883742 0 0 0
2204 14 1 4.965796627123058 24.157903838490814 15.28721127943152 0 0 0
2205 14 1 5.374327608365099 23.641442208038548 16.67316593376585 0 0 0
2206 14 1 6.620087945413591 24.327947340280918 17.286373824388114 0 0 0
3191 4 1 16.407469587392093 8.430140358451302 11.958374981233456 0 0 1
853 8 1 14.952531991781846 11.22647294299552 30.014570636434375 0 0 0
2817 9 1 16.795463692947433 7.230727509717957 19.794274273263902 0 0 0
9511 51 1 11.255776297222862 26.150869921175598 30.88850827675515 0 0 0
3200 19 1 17.492056752620684 10.885293690491034 20.58448264984832 0 0 0
1208 9 1 11.358665913865565 13.60725205092143 17.463977488248865 0 0 0
7307 48 1 6.534442171828683 0.9536525837397671 30.41609791249807 0 0 0
4189 24 1 16.59503708774994 22.15603264956717 13.716946960359717 0 0 0
8509 60 1 2.1509966314710804 14.205176949335904 24.34629469461398 1 0 0
6630 55 1 0.9811821239568763 22.145959732829272 30.096931060347618 1 0 0
9199 60 1 10.53435033431967 22.204904279722438 29.461707992472647 0 0 0
8134 39 1 5.253015616997188 10.087149326808886 28.256201729959383 0 0 0
1766 45 1 17.49347926754123 21.96752306563985 26.729671153610717 0 0 0
8820 57 1 12.092159702342371 17.631485788876955 31.854336152964013 0 0 0
2361 14 1 17.400228404809024 26.54778871749873 26.696248439198566 0 0 0
6253 52 1 0.9459705334806742 17.22078998291371 29.707317669894323 0 0 0
9187 60 1 1.7286646354096478 21.82053799711746 17.218510537141952 0 0 0
2809 18 1 16.866493449286846 4.813140254479545 12.958195027726562 0 0 1
2365 16 1 16.002033600144397 2.061864883042452 18.069063755000734 0 0 0
1467 11 1 17.547667462437083 17.479203900033053 26.688115573188945 0 0 0
8420 2 1 0.688970253159878 12.737655402514319 15.575235542345396 0 0 0
820 5 1 9.971402956338684 8.479488014542609 16.630118615421086 0 0 1
2368 16 1 18.18174906643144 3.1728445767671882 21.108610581268355 0 0 0
2889 9 1 12.1674947042807 6.326230001147561 12.082243018339613 0 0 0
9509 51 1 9.728671087821219 26.129870445399238 28.888170190167266 0 0 0
7306 48 1 5.720933575422881 1.7818686417589047 29.348938737006367 0 0 0
8434 2 1 11.122723598029037 12.851431293805861 29.982288792256334 0 0 0
2588 16 1 15.378158153763232 2.830741837152505 16.916054573007155 0 0 0
7598 48 1 12.555064779504443 3.823808562036448 31.974104700376014 0 0 0
824 5 1 13.189276454284943 8.4188768728611 20.607590116659335 0 0 1
1285 61 1 3.7023303348298637 14.724350547086539 14.558197113919993 0 0 0
8423 2 1 2.7095639148497814 12.331248082975408 18.76782690188768 0 0 0
607 6 1 18.209125412178686 9.201788105558002 27.82476086816115 0 0 0
2813 9 1 13.816080616672128 6.7620387833114215 15.610718960603212 0 0 0
8900 44 1 7.375430516028251 19.505556463126226 31.93970538366096 0 0 0
3198 19 1 15.91419705621917 10.97202392249638 18.552104638506325 0 0 0
395 57 1 15.885916417216244 5.825822938736577 31.014303958633594 0 0 0
8811 57 1 5.401807493607345 16.791723152938662 22.481507602591158 0 0 0
1996 14 1 16.86267243402464 24.824690617847736 31.77708232179986 0 0 0
1765 45 1 16.427031952359407 22.72998062558267 25.898534677245763 0 0 0
2890 9 1 12.306765224424153 6.820934429273101 13.509343641843023 0 0 0
2891 9 1 13.597129501028501 6.371235303060982 14.211760876815736 0 0 0
3721 22 1 13.68015527608231 15.864536725968685 14.0669316872197 0 0 0
1755 12 1 3.5349919121216686 19.458732492005364 14.843722025307036 0 0 0
5864 39 1 2.3524109810756366 12.690947177046013 30.490723864902776 0 0 0
3199 19 1 16.95645005424252 11.720811505266658 19.3453892732768 0 0 0
3195 19 1 13.907180452497503 11.74652084911781 15.291468918975749 0 0 0
3196 19 1 14.709144619533578 10.829066943199534 16.25017042429899 0 0 0
3197 19 1 15.59205345646094 11.615233689819835 17.181507833627933 0 0 0
9279 61 1 0.9901130344582972 24.25842878191437 23.8618474548959 0 0 0
8901 44 1 8.563691504619449 18.932990670720407 32.6885822145199 0 0 0
4037 28 1 16.008159051733603 19.45462802598114 18.508989908718913 0 0 0
2282 56 1 14.084602312893173 0.46581429298176086 21.21893592385876 0 1 1
5420 34 1 3.6997376184572843 8.055837803674294 32.686285424271134 0 0 0
7302 48 1 2.5385821815642275 1.8301763057564493 25.57167844871344 0 0 0
7300 48 1 1.1439860437785483 2.1144562831359637 23.458905774186174 0 0 0
8810 57 1 4.335573616335923 17.550525264417455 21.695623778299108 0 0 0
7590 48 1 6.487079551005348 3.7362503632416235 23.690056978681355 0 0 0
7303 48 1 3.1429001143910904 0.9309365658626729 26.63313953656925 0 0 0
9507 51 1 8.517998126923736 25.857852843205627 26.73883293891477 0 0 0
3643 22 1 13.75547166540296 16.14205059921198 15.50735008780461 0 0 0
3644 22 1 15.155334596351572 15.834259741062397 16.08674504144683 0 0 0
3645 22 1 15.25228919425871 15.766379000913444 17.601120012327577 0 0 0
3646 22 1 16.628871534828296 15.452447484989678 18.19931635224239 0 0 0
3647 22 1 16.677628695024897 15.692483201440577 19.68729677781946 0 0 0
309 6 1 14.450248094371382 4.11506993065093 22.999552680172226 0 0 0
847 8 1 10.849336498921076 10.867284721778168 23.76358117238798 0 0 0
1546 12 1 15.523585632648189 19.980722216812964 29.491084911942092 0 0 0
9 2 1 14.206017880570414 1.526212615722791 29.034935650346586 0 0 0
4040 28 1 18.358891864108735 20.40455515252168 21.36065884173216 0 0 0
2274 56 1 7.725549094634547 26.655755801743492 13.010223137884253 1 0 1
3642 20 1 16.205990005724374 12.8585958826067 12.164566237552345 0 0 0
816 5 1 7.242365723610851 8.411432076471332 12.440551519923696 0 0 1
9512 51 1 11.888854651122555 0.17300523911322277 32.093629609793936 0 1 0
8807 57 1 2.2460348451601493 16.876023600648352 18.29449202599321 0 0 0
8814 57 1 7.500489223916845 17.238059292154784 25.69265019303085 0 0 0
1976 53 1 7.23665431999084 21.460179333122994 12.280177977643383 0 0 1
2584 15 1 12.151591056418688 2.3557138693935706 13.052272280080695 0 0 1
6629 55 1 0.58705517942079 21.367221615866516 28.843743277017005 1 0 0
9287 61 1 7.0458535801012525 23.838694231339883 32.12531558875766 0 0 0
4969 33 1 2.102975230541462 3.480180365551786 30.34529701971034 0 0 0
8132 39 1 3.9474881801087385 9.988082772605507 26.13084794111331 0 0 0
9280 61 1 2.1623903570971748 23.55985269111163 24.51258267380731 0 0 0
1468 11 1 18.384081031135693 18.27900535357937 27.69926437116858 0 0 0
6255 52 1 2.600920555108086 17.529118771108056 31.551202183370034 0 0 0
3192 4 1 16.58395445006033 9.130362774928471 13.316270408005575 0 0 1
7592 48 1 7.9603869016704305 3.8368477805087164 25.739801209275434 0 0 0
7083 47 1 2.7408434544862947 26.460616992975318 31.96250283794452 0 0 0
8422 2 1 2.3560702160971343 12.95248361205988 17.474725323889903 0 0 0
854 8 1 16.105766216050615 10.608781362265661 30.794165972789568 0 0 0
7698 50 1 5.310409084235002 6.155511183808362 28.151961865837247 0 0 0
9185 60 1 0.19557110714867126 21.672438879430253 15.171510280384686 0 0 0
7894 7 1 1.2441683937071022 7.508797361523402 16.857414235268294 1 0 1
8817 57 1 10.171823094538933 16.577533501579026 28.47416227036245 0 0 0
843 8 1 7.8798663993562235 10.89641319649689 19.521659573043934 0 0 0
7899 31 1 5.119569496902676 8.403522933735031 21.772987447456487 1 0 0
2275 56 1 8.17103159529736 26.086693761979916 14.360866612831074 1 0 1
4557 29 1 11.901259781237641 24.1950757272335 12.293174810669942 0 0 1
7308 48 1 7.4215815566162435 1.8708699232965749 31.287159372902934 0 0 0
7909 31 1 12.661370219650111 8.92913577791319 31.880124332381083 0 0 0
6631 55 1 2.098986503679495 21.403183183077083 30.77390010283642 1 0 0
7898 31 1 3.8834700193494953 7.731725220974745 21.181574000464003 1 0 0
10 2 1 15.557394654102666 1.704161912435184 29.73133751648568 0 0 0
9195 60 1 7.928091473125699 22.189920414194322 25.248012144400768 0 0 0
8898 44 1 5.937366261300342 19.61161313032649 29.76370436083751 0 0 0
9194 60 1 6.538723233610712 21.76619294495281 24.73724956428442 0 0 0
11 2 1 15.5330951053168 1.8265631062800758 31.225127474995627 0 0 0
7513 49 1 2.331709232957734 3.443748179345651 18.978558880704536 1 0 1
1138 9 1 17.90100902967667 12.942414276856917 26.7907250512418 0 0 0
8135 39 1 5.68671999416546 10.539784180666487 29.620886668951677 0 0 0
9283 61 1 3.9478885878439027 24.00768572222034 27.97612232994683 0 0 0
9501 51 1 3.880968828107954 25.756563969655435 20.767006068601063 0 0 0
8816 57 1 9.082349416633365 17.260673963102697 27.62023609239934 0 0 0
8813 57 1 7.02184838301462 16.62742345909517 24.331454719050498 0 0 0
851 8 1 13.636198267498514 11.010036929725645 27.82576495781675 0 0 0
1754 12 1 3.4728826037763145 19.850808297480327 13.397020272809314 0 0 0
9186 60 1 0.4654764940108776 21.20641723896542 16.583102355762716 0 0 0
845 8 1 9.065065461236657 10.81075571785132 21.79781787480728 0 0 0
9188 60 1 1.9146531137513776 21.577224160843905 18.682585764895975 0 0 0
8425 2 1 4.0453936513221915 12.45153240953442 20.919356186050493 0 0 0
312 6 1 17.419699343120175 4.317937243428852 25.543007432488906 0 0 0
1548 12 1 16.873902372436113 20.119472228231697 31.696205418044524 0 0 0
9198 60 1 9.460767508862157 21.411459870637582 28.722772477252214 0 0 0
850 8 1 13.381756529256139 9.986330447356481 26.703308895019674 0 0 0
7696 50 1 3.7052397021041092 6.129362130560171 26.05134162570645 0 0 0
7695 50 1 2.2748555265972663 6.042681086292502 25.540982298546318 0 0 0
3648 22 1 17.88023089126701 15.251223813403538 20.508816835205643 0 0 0
9192 60 1 4.857464586495349 21.917002888777876 22.642978395480107 0 0 0
2360 14 1 17.277342248649855 26.58392929358613 25.125060729000047 0 0 0
2366 16 1 16.955479613913294 2.9402473404181606 18.989098594876083 0 0 0
4564 29 1 16.973396116806207 25.01142640623737 19.412022044716778 0 0 1
4190 24 1 17.977864446853076 21.812449356488425 14.24646190221786 0 0 0
9190 60 1 3.5116915237726896 21.68000012908405 20.553438603038956 0 0 0
9193 60 1 6.2308217376945345 22.214301145132737 23.292681500780763 0 0 0
826 6 1 14.858672284655295 8.509188008402694 22.49918986908283 0 0 0
849 8 1 12.35386529196126 10.647978963622293 25.809214679192273 0 0 0
7694 50 1 2.0704350989213802 6.538839173670552 24.150617070015834 0 0 0
7897 31 1 3.688610310811195 8.22702440376365 19.741475584734935 1 0 0
7304 48 1 3.9843972401788683 1.6538248025586535 27.65219771223887 0 0 0
7305 48 1 4.927527911623716 0.8104967518057103 28.56426275590388 0 0 0
3649 22 1 18.036004503021672 15.818275488943188 21.927526385663505 0 0 0
818 5 1 8.608089172353806 8.530758559794194 14.533508912340174 0 0 1
7510 49 1 0.7845907792185122 3.7792397840224172 15.344566214535991 1 0 1
8133 39 1 3.9871328202314955 10.578697507703586 27.522536725160382 0 0 0
8894 44 1 2.8334732717023403 19.599436431651306 25.745180912034492 0 0 0
7301 48 1 1.684376859333017 1.1553904673378685 24.517413108328192 0 0 0
8893 44 1 2.5565365211983067 18.85092305541853 24.448367357563278 0 0 0
7511 49 1 0.9647837038191562 3.387037798027385 16.82755162975193 1 0 1
8815 57 1 8.426793058872546 16.425758349764248 26.53844103623966 0 0 0
852 8 1 14.62031126910091 10.353298492059647 28.797486395328463 0 0 0
7595 48 1 9.620495260311905 3.976358523883853 29.33729336598874 0 0 0
7596 48 1 11.057266834308141 3.898453916870713 29.86309900334383 0 0 0
7597 48 1 11.134713859376973 4.05246010938593 31.441700352656916 0 0 0
1532 11 1 6.882202625270089 17.17195761207498 12.465501896518187 0 0 0
8517 60 1 8.315872321033883 14.477390619988398 32.529809441089114 0 0 0
9200 60 1 11.050193257034644 21.550468183639662 30.765601096786803 0 0 0
2276 56 1 9.225129749496698 0.1430847571910817 15.157382996824195 0 1 1
5863 39 1 1.099276062838257 13.348993582430822 29.766264480466376 1 0 0
8129 39 1 1.0289595254405532 10.515464671499958 23.527500217527905 0 0 0
7693 50 1 0.8263933315240706 6.06342192559633 23.503009249524204 0 0 0
8514 60 1 5.717778648944706 15.332349154498496 29.68674249583038 0 0 0
7591 48 1 6.573982790974814 3.7385670640033926 25.188746311737233 0 0 0
8515 60 1 6.757958045992793 14.488840770417447 30.40793047906967 0 0 0
9506 51 1 7.515733699489916 0.06337851299343275 25.969044710889975 0 1 0
9197 60 1 9.355371940146046 22.05646390878626 27.29539832752371 0 0 0
844 8 1 8.51025137554201 10.032652916548374 20.633233210293124 0 0 0
7699 50 1 5.392364441908984 5.8319836128692355 29.662112846989274 0 0 0
9286 61 1 6.6418119864487855 23.145517110371543 30.78585242261486 0 0 0
9284 61 1 5.186194658123864 23.39598595072149 28.593284991965856 0 0 0
1131 35 1 8.555507734936532 12.909450888851426 14.755710987679096 0 0 1
9282 61 1 3.593691438701972 23.43888104295165 26.589203025528533 0 0 0
1129 35 1 6.842327235181121 13.191584814124376 12.766117505808085 0 0 1
7692 50 1 0.7709643701400701 6.330491957282497 22.015433591870497 0 0 0
1130 35 1 8.182213565659872 13.604817609806624 13.409932708888643 0 0 1
4035 28 1 14.530574792625178 19.55572068435325 16.564266382466784 0 0 0
9191 60 1 4.809849890906011 22.216240689775407 21.147207573855816 0 0 0
8508 60 1 1.4136040312254732 15.031447715609401 23.262545809864523 1 0 0
2583 15 1 11.126436928283287 1.540253060285089 12.247167281241827 0 0 1
7900 31 1 5.478464328345666 7.823217860903662 23.148632965127327 0 0 0
7902 31 1 7.05587721381315 7.616990854622934 25.12459944471732 0 0 0
7903 31 1 8.298923899600085 8.182023028852129 25.74709696119411 0 0 0
7904 31 1 8.497868636344705 7.577274563018109 27.14829206518032 0 0 0
7905 31 1 9.785094589363602 8.058639334910023 27.749079479598684 0 0 0
7906 31 1 9.94738028610829 7.892052175061504 29.278564050297522 0 0 0