LAMMPS data file via write_data, version 23 Jun 2022, timestep = 1000000

9706 atoms
2 atom types
9690 bonds
3 bond types
9674 angles
3 angle types
9658 dihedrals
3 dihedral types

0 36.89775039 xlo xhi
0 26.67072 ylo yhi
0 236.7516044 zlo zhi
0 7.448720975 0 xy xz yz

Masses

1 14
2 15

Pair Coeffs # lj/cut/omp

1 0.0914 3.95
2 0.1947 3.75

Bond Coeffs # harmonic/omp

1 449.5 1.53
2 449.5 1.53
3 449.5 1.53

Angle Coeffs # harmonic/omp

1 62.0967 114
2 62.0967 114
3 62.0967 114

Dihedral Coeffs # opls/omp

1 1.411 -0.271 3.145 0
2 1.411 -0.271 3.145 0
3 1.411 -0.271 3.145 0

Atoms # molecular

1 17 1 6.226673584748168 1.4693440131858229 9.707766012396977 0 0 0
2 17 1 7.450039552210695 1.2234823929974126 10.551843771036836 0 0 0
3 17 1 7.247149073419128 1.2144754013896848 12.040565052525544 0 0 0
4 17 1 8.532324103466273 1.436049664078706 12.790708327048714 0 0 0
5 17 1 8.421374859253072 1.2014727261182558 14.29291184715137 0 0 0
6 17 1 9.723404718991418 1.5662800988933714 14.984869142360544 0 0 0
7 17 1 9.597777984830104 1.4174421934216994 16.50836652330572 0 0 0
8 17 1 10.965816282232389 1.757429255900724 17.214262531200234 0 0 0
9 17 1 11.158766183687261 1.053641341484719 18.59189454294138 0 0 0
10 17 1 12.401738794946779 1.4786161065216856 19.269183487837672 0 0 0
11 17 1 12.573378275970464 0.9498932625421393 20.686802071314272 0 0 0
12 17 1 13.674692823099877 1.4818217565890388 21.614197789188005 0 0 0
7695 1 1 4.159457778258202 6.043782970748602 22.295427748357405 0 0 0
7692 1 1 2.890340429820728 5.768727444190165 18.548301787505558 0 0 0
4419 38 1 17.01420014234831 23.528045660073108 12.160147337944776 0 0 0
7238 52 1 4.348177829765178 1.2263415428011186 20.594729045900678 0 0 0
217 1 1 1.709971248278332 1.8810859541263414 0.4668893368792108 0 0 1
7073 23 1 1.0477249792515209 25.645886931283606 23.169522225845718 1 0 0
220 17 1 4.256603613739041 1.5159095548022872 3.5119627974115604 0 0 0
221 17 1 4.063732161279707 1.5958963128931072 5.038765216421201 0 0 0
222 17 1 5.370875007504033 1.485043467900289 5.841599279489861 0 0 0
223 17 1 5.18191492404199 1.231048977718561 7.34459206179392 0 0 0
224 17 1 6.4293502821703665 1.2696127434238897 8.228347439562468 0 0 0
225 3 1 8.933875748907985 3.400852494970778 5.134181789864585 0 0 0
226 3 1 10.144353880533187 3.6228008621918044 6.081485922029474 0 0 0
227 3 1 10.010201950315787 3.1293251753632942 7.496675355792669 0 0 0
228 3 1 11.193897090846596 3.3012551087121227 8.437532308114706 0 0 0
229 3 1 11.12998889330699 3.0794753582306797 9.952866934936061 0 0 0
230 3 1 12.37981160288667 3.508306783984844 10.772500811166967 0 0 0
231 3 1 12.376253618763196 3.434055572044791 12.307864989727964 0 0 0
232 3 1 13.773575161550866 3.646847352420067 12.955248421363827 0 0 0
233 3 1 13.734642570776407 3.5755837769498116 14.512109830186604 0 0 0
234 3 1 15.015860053135796 3.550042161863623 15.296741936346802 0 0 0
235 3 1 14.827314248659125 3.7203429144028837 16.804119143816205 0 0 0
3411 26 1 12.54609378236879 10.284079110198256 3.3050020555426025 0 0 0
3418 29 1 17.53556587027026 12.829330303533286 3.578496681863377 0 0 0
7236 52 1 2.875481747087791 1.2515454186724988 18.424908365345306 0 0 0
8665 62 1 1.954450831462761 17.475492551165967 7.573589458342428 0 0 0
3033 22 1 17.09605392242447 8.15845759658327 3.7287110767570857 0 0 0
445 3 1 6.875071228136711 3.3339064493442616 0.5076693258263383 0 0 0
448 3 1 9.165432111445904 3.6162023088854283 3.645827550431776 0 0 0
449 3 1 6.459203679822284 5.634484598624342 7.858627192024866 0 0 0
450 3 1 6.407704312274234 5.364120207519564 9.343807649165848 0 0 0
451 3 1 7.745100569690561 5.530639091660615 10.061342993096593 0 0 0
452 3 1 7.552610868775012 5.208042432621242 11.556316976072482 0 0 0
453 3 1 8.783627103118027 5.473456566587111 12.429401650228561 0 0 0
454 3 1 8.652452015145116 5.557765854381151 13.911459020225907 0 0 0
455 3 1 10.026821898102344 5.608675532635655 14.544449041443112 0 0 0
456 3 1 9.892844273345542 5.655116976238243 16.070295099182477 0 0 0
457 3 1 11.207642110513248 5.851610050450155 16.792009006178 0 0 0
458 3 1 11.237052724648967 5.6178629971967995 18.2754613110068 0 0 0
459 3 1 12.570042568047965 5.80555062221422 18.89398036220553 0 0 0
8663 62 1 0.5251503602042022 17.709069635075302 5.507759042295533 1 0 0
1747 43 1 3.117144268962182 19.747615123874137 1.149093623788194 0 0 0
1843 59 1 17.260508432275145 21.66805591924663 19.07629909564663 0 0 0
1219 9 1 2.961189095659177 15.340326906698111 2.4682427559857967 0 0 0
3031 22 1 15.93339998490124 7.989471016211498 1.4802706284639993 0 0 0
1064 8 1 7.432519234535727 13.318760585256962 1.421362611123576 0 0 1
522 3 1 3.0190170549379163 6.091887895211679 1.1891322690863961 0 0 0
523 3 1 2.8501744687924635 5.9929398889020975 2.704352997713785 0 0 0
524 3 1 4.218399619051265 5.737073461219826 3.391170955570653 0 0 0
525 3 1 4.052971830880928 5.4079533885419835 4.844253155125535 0 0 0
526 3 1 5.327673668772309 5.494126918021402 5.624543223304088 0 0 0
527 3 1 5.16579198599726 5.405099117597717 7.149716898612149 0 0 0
686 4 1 9.757706348837234 7.5078649607531585 7.160614553486263 0 0 0
687 4 1 10.638453314401971 8.33316131566426 8.069751261307928 0 0 0
688 4 1 11.320018231276812 7.501579948068606 9.151271376914234 0 0 0
689 4 1 12.102501259819594 8.24429230540974 10.239447843366047 0 0 0
690 4 1 12.772903248867399 7.330943575796861 11.291202777393849 0 0 0
691 4 1 13.23713263186686 8.178709208405975 12.47973256475047 0 0 0
692 4 1 14.027052660848454 7.403918942743481 13.49219070554277 0 0 0
693 4 1 14.611601978415935 8.095096010807124 14.735632891271438 0 0 0
694 4 1 14.952865341999486 7.187029215684597 15.962774546279482 0 0 0
695 4 1 15.499478971883972 8.214258930567253 16.981844538260702 0 0 0
696 4 1 15.871309218021294 7.585063204719749 18.25819126449614 0 0 0
1542 43 1 13.64392075888778 19.150297206729388 23.005317640748967 0 0 0
3857 39 1 12.45296307588609 14.905956849306659 2.6872474375931716 0 0 1
447 3 1 7.991720400987752 3.2400346551989285 2.7963979921876216 0 0 0
761 4 1 7.56480689932009 7.503829736751065 2.4015803521923065 0 0 0
762 4 1 8.25572430390034 8.29413910450537 3.499682429475318 0 0 0
763 4 1 8.723764094826524 7.48126283128637 4.722737385103566 0 0 0
764 4 1 9.489866844191672 8.162316333756944 5.807222760438801 0 0 0
765 47 1 6.062996016931385 9.629309829223986 8.80383200676866 0 0 0
766 47 1 7.159239042047475 10.095026219280667 9.80551975882819 0 0 0
767 47 1 7.405918423991624 9.30756002025216 11.123532511292963 0 0 0
768 47 1 8.683203954406778 9.732267480807716 11.83777612614087 0 0 0
769 47 1 8.851643343782095 9.153242451649085 13.256280005143573 0 0 0
770 47 1 9.68102722022956 10.060952342993323 14.217740582003659 0 0 0
771 47 1 9.89738937375936 9.49082672810521 15.577983805275597 0 0 0
772 47 1 10.997863635501687 10.215678777168893 16.43067853852478 0 0 0
773 47 1 11.225126443070343 9.603937251005355 17.793499398512736 0 0 0
774 47 1 12.416701506443824 10.229525970756665 18.550849627532518 0 0 0
775 47 1 12.40154073875945 9.707517315597887 20.023660760551625 0 0 0
776 47 1 13.638794136247594 10.03634802462768 20.893628389321208 0 0 0
9287 62 1 5.362869370846732 23.692917466464817 23.66099290339083 0 0 0
7901 9 1 1.5138886228536859 8.03231342517828 7.522231534915522 0 0 0
7239 52 1 4.491964470498646 1.8457628809530973 21.96888651059034 0 0 0
4253 6 1 16.34328023052454 22.154794433827348 1.22458502309036 0 0 0
4036 46 1 16.016575319826515 19.57811471654337 8.317926631182845 0 0 0
983 47 1 3.1809324732610165 10.250417922458832 1.6165336732513702 0 0 0
984 47 1 4.056560368802334 10.883934656116741 2.731755671094332 0 0 0
985 47 1 4.120771648758916 10.076652300636109 4.025721585801569 0 0 0
986 47 1 4.901538777497397 10.675135510943726 5.177964538906593 0 0 0
987 47 1 5.024551437263382 9.867710837090405 6.5003189906234615 0 0 0
988 47 1 5.950456890920121 10.46512533214707 7.543491963399413 0 0 0
1068 4 1 12.509008416422242 12.288409853534443 11.615771398170429 0 0 0
1069 4 1 13.922132012057462 12.427473260996937 12.207239789313604 0 0 0
1070 4 1 13.821145713043256 12.455479461573807 13.702105912721018 0 0 0
1071 4 1 15.12579372171229 12.565250644957649 14.599305567125146 0 0 0
1072 4 1 14.955240750161142 12.619166790892715 16.147494064807383 0 0 0
1073 4 1 16.223601663709523 12.577157923049525 16.98643749424451 0 0 0
1074 4 1 15.985946874392226 12.780832384622395 18.506943589009445 0 0 0
1075 4 1 17.251940656737418 12.776851435738795 19.328795421680137 0 0 0
8422 40 1 0.5999910225954426 12.796744429717913 4.809269088966773 0 0 0
2806 20 1 17.331964055248406 4.154229457905554 3.223363156860468 0 0 0
2813 30 1 17.25090690532676 6.419488062089728 10.567884328415833 0 0 0
8510 56 1 1.883906814239015 14.535158665111888 16.576789987287892 0 0 0
9199 61 1 9.238109300973298 21.46292178454657 21.427355567783252 0 0 0
2353 16 1 9.439283906263421 26.184212936784817 3.7170593066885105 0 0 1
1143 4 1 9.821791428935128 12.218933614759164 7.280735267790362 0 0 0
1144 4 1 11.148943687136203 12.248491665446533 7.966216433292712 0 0 0
1145 4 1 11.158865840038654 11.997402068580978 9.480364218723066 0 0 0
1146 4 1 12.4575937941759 12.377537321391786 10.104969951834603 0 0 0
1147 9 1 7.901435001168895 14.787824703471133 9.932151348849198 0 0 0
1148 9 1 7.737817036969556 14.571957102122658 11.429187941205903 0 0 0
1149 9 1 9.081194718712673 14.711705163738394 12.157614920839224 0 0 0
1150 9 1 8.774212172697863 14.691859426266795 13.707371217826005 0 0 0
1151 9 1 10.018823976682102 14.54824409231179 14.568160473680335 0 0 0
1152 9 1 9.846285902046812 14.959256498555318 15.981272834346017 0 0 0
1153 9 1 11.085222544283846 14.699478539391283 16.83475278634657 0 0 0
1154 9 1 10.894480041898627 14.967892181294117 18.285620670012268 0 0 0
1155 9 1 12.192536812277778 14.798117906468125 19.006907480016245 0 0 0
1156 9 1 12.114077827873688 15.249163068181018 20.47326502178966 0 0 0
1157 9 1 13.26849583182064 14.63042933939846 21.339311978526883 0 0 0
1158 9 1 13.353618350340588 15.229241836349733 22.729144236451052 0 0 0
3858 30 1 13.564599613479544 15.543964632120764 3.446199542843554 0 0 0
7450 5 1 0.4695355515963111 3.8067186034507463 5.060160972571238 1 0 0
8437 40 1 9.129968096646296 12.112593360339426 22.259283600940794 0 0 0
9500 63 1 4.179228370508971 25.443216656186582 12.29396306439933 0 0 0
3034 22 1 18.281885814624673 8.748079523699037 4.563348300948667 0 0 0
1220 9 1 4.265484791875579 15.154217699323047 3.1812529657973343 0 0 0
1221 9 1 4.1765852234788365 15.160107158226506 4.651918709120536 0 0 0
1222 9 1 5.5326413810395145 14.843945030842233 5.374791291858057 0 0 0
1223 9 1 5.382086270951901 14.888866125096008 6.934052052799815 0 0 0
1224 9 1 6.690312491677248 14.591840478040302 7.67703732705837 0 0 0
1225 9 1 6.6216593042286975 14.659325379256313 9.208551228600946 0 0 0
1305 12 1 10.086957482336016 17.19838397171386 5.3379167871154545 0 0 0
1306 12 1 9.945700248413816 16.80983823102248 6.802035606434731 0 0 0
1307 12 1 11.087014279485016 17.358234759142615 7.6233322578111276 0 0 0
1308 12 1 11.142178494291514 16.737904600185647 9.039214663619344 0 0 0
1309 12 1 12.301166156620905 17.39475319471948 9.875185645856154 0 0 0
1310 12 1 12.295551609397839 16.91593022309862 11.319194978886525 0 0 0
1311 12 1 13.570398543461065 17.234801000916214 12.116013663726061 0 0 0
1312 12 1 13.482947426618042 17.00189664368687 13.58839882564962 0 0 0
1313 12 1 14.748378228991095 17.173414772393464 14.392451572045221 0 0 0
1314 12 1 14.63598987990917 17.228683979861906 15.916260392902528 0 0 0
1315 12 1 15.968711666173297 17.535094193774558 16.66900047117276 0 0 0
1541 43 1 13.692513570921404 19.31106067952184 21.464566934597286 0 0 0
9281 62 1 1.8756439543418875 23.715448481905646 16.693449589933998 0 0 0
236 3 1 16.124786301389925 3.593636371640655 17.585490125138207 0 0 0
1525 12 1 7.707627007785124 17.249266595249818 0.8552974537274692 0 0 0
1526 12 1 7.50224064795248 17.07144873918839 2.3665061430743917 0 0 0
1527 12 1 8.749066414095807 17.42661052574077 3.1637609528701915 0 0 0
1528 12 1 8.704161569744663 17.008231489244295 4.602559509078309 0 0 0
1529 43 1 7.192302757693987 19.115992708318313 7.622128803399061 0 0 0
1530 43 1 7.0281230426502095 19.3365346540119 9.166428936238725 0 0 0
1531 43 1 8.216718033077523 19.31452963094222 10.044994759219158 0 0 0
1532 43 1 7.992032140256443 19.283596819496047 11.516603358563295 0 0 0
1533 43 1 9.123764058782818 19.385856197058157 12.44621651522519 0 0 0
1534 43 1 8.925136724171615 19.097873708368702 13.92159637952109 0 0 0
1535 43 1 10.212041387806968 19.388750103662616 14.619688032697459 0 0 0
1536 43 1 10.147731729629031 19.374370604652896 16.13734157306841 0 0 0
1537 43 1 11.483528316955649 19.390460537318955 16.877728862913763 0 0 0
1538 43 1 11.280471267286424 19.154971773017987 18.36304181103509 0 0 0
1539 43 1 12.623082932695596 19.018683807190193 19.12663065949285 0 0 0
1540 43 1 12.449427319231766 19.05735380338203 20.65714061489768 0 0 0
1067 8 1 8.792457639395872 12.278191436331234 4.9514414136451395 0 0 1
1066 8 1 8.772858462001734 12.96225683194488 3.6123251062944846 0 0 1
2368 29 1 16.096424735462566 2.004344755886187 9.897776042567367 0 0 0
9508 63 1 9.18631370726796 25.447330879193142 21.33505381615402 0 0 0
7696 1 1 5.4521759128399285 5.668942440294522 23.015369223853234 0 0 0
2127 15 1 2.904432368941348 23.892102660625948 2.580658009943828 0 0 1
4254 6 1 17.575844009287398 21.744499537228297 2.050927182388825 0 0 0
1749 43 1 4.366902888692995 19.76796992654913 3.3797979967297542 0 0 0
1750 43 1 4.248337929884069 19.472763946787765 4.857121974944728 0 0 0
1751 43 1 5.696255019555644 19.385656556218372 5.456572276908768 0 0 0
1752 43 1 5.820286300138804 19.165029103152744 6.926529030697306 0 0 0
1832 59 1 10.462796296773515 21.766457580708323 6.8776045839600615 0 0 0
1833 59 1 11.634724364661835 21.457317142929014 7.775402528717092 0 0 0
1834 59 1 11.288815770723188 21.66237753504753 9.25849731101421 0 0 0
1835 59 1 12.398516243926988 21.070625600818822 10.149531157025542 0 0 0
1836 59 1 12.299298092076254 21.444561948474156 11.643784355069116 0 0 0
1837 59 1 13.637767936035516 21.376517319421826 12.40550311182834 0 0 0
1838 59 1 13.509005974213796 21.652275592354872 13.848801295658065 0 0 0
1839 59 1 14.8373654870633 21.548503983261035 14.576648165043828 0 0 0
1840 59 1 14.744889208379773 21.53512726034326 16.08916550283652 0 0 0
1841 59 1 16.034049373288887 21.65744921820447 16.904989663189696 0 0 0
1842 59 1 15.906839533572239 21.869425119800738 18.377258561312377 0 0 0
982 47 1 2.4207271948526397 11.276325684095877 0.7236057692286697 0 0 0
2146 17 1 18.38355170652966 25.879725830871536 23.41534771488559 0 0 0
237 3 1 16.06879351139332 3.9877974928277804 19.066335578456176 0 0 0
1907 59 1 7.891618022439656 21.577848873866603 2.455225058413673 0 0 0
1908 59 1 9.302555225311822 21.631090976040603 3.1637630457153523 0 0 0
1909 59 1 9.148672101642232 21.74095842565821 4.67278893479489 0 0 0
1910 59 1 10.417604713525456 21.35527573329987 5.370766169256849 0 0 0
1911 63 1 7.778853747168379 23.69701666436631 11.484292527597473 0 0 0
1912 63 1 9.051536133290304 23.805812975730735 12.325277375822107 0 0 0
1913 63 1 9.062446541888903 23.645356807757125 13.812436549020346 0 0 0
1914 63 1 10.445253877791457 23.959136609778177 14.425844785563312 0 0 0
1915 63 1 10.257919007940185 23.781982037595643 15.968454307004937 0 0 0
1916 63 1 11.495341592204767 23.901900966149483 16.86978847932627 0 0 0
1917 63 1 11.326127736479656 23.424565201806022 18.315934218597068 0 0 0
1918 63 1 12.623793869987189 23.64717280571793 19.105120441291028 0 0 0
1919 63 1 12.378667049692858 23.491500339658575 20.60911671375862 0 0 0
1920 63 1 13.648486340070551 23.438383531589334 21.338307338202128 0 0 0
4409 38 1 11.47058260302975 23.45785990221448 0.8978704563171845 0 0 0
462 3 1 13.51751575629197 5.581249679298322 22.622386411014563 0 0 0
8128 56 1 0.7388049259757202 10.66312319586245 14.098899669050972 0 0 0
3410 26 1 12.54971750586924 10.673468750922176 1.8340875531888607 0 0 0
2125 15 1 1.6160708374578772 23.647307278371485 0.36385620342662506 0 0 1
9507 63 1 7.86971070903143 25.66589265076725 20.533253902058245 0 0 0
1319 12 1 18.278053171559417 17.484302105481646 21.28552391352691 0 0 0
2129 63 1 4.31958229420556 24.014070481235773 4.7507121036076 0 0 0
2130 63 1 5.679330429561436 23.774048971159424 5.341808946989626 0 0 0
2131 63 1 5.779492245303569 24.2309003113757 6.82694585853218 0 0 0
2132 63 1 7.0949486757592295 24.05604729603073 7.61145664022974 0 0 0
2133 63 1 6.838145819652518 24.106126594356873 9.112366527323747 0 0 0
2134 63 1 8.072012076502148 23.586693779709965 9.997097806962458 0 0 0
2135 17 1 12.70795123489266 26.107723873202218 10.729553581578665 0 0 0
2136 17 1 12.324394558078422 26.030869431671544 12.214615525522857 0 0 0
2137 17 1 13.60459999408052 26.12145939486854 13.065456867842848 0 0 0
2138 17 1 13.445134965438978 26.098404025986415 14.554638494739468 0 0 0
2139 17 1 14.82697505966437 26.171903553268756 15.23466666521864 0 0 0
2140 17 1 14.991792363102252 25.731440669044925 16.669966299070047 0 0 0
2141 17 1 16.43511468412017 25.92896941922002 17.238500062539433 0 0 0
2142 17 1 16.42570073427163 25.58875660411636 18.736688990784916 0 0 0
2143 17 1 17.578975781199233 26.091677385726342 19.584420280829693 0 0 0
8438 40 1 10.437979797509872 12.16633144323815 23.002433207575297 0 0 0
8436 40 1 9.341681560211843 11.961905049729317 20.74035080260128 0 0 0
9282 62 1 2.128477039864167 23.876146995397132 18.22083301060572 0 0 0
1524 12 1 6.37374574145197 17.275618582224023 0.05228630781671107 0 0 0
2354 17 1 9.268168083918242 26.104179260758283 5.239242680659384 0 0 0
2355 17 1 10.539764761571188 25.935623884044173 6.056370453144562 0 0 0
2356 17 1 10.48720962280757 26.127599246047684 7.594964649348942 0 0 0
2357 17 1 11.771135163122098 25.86071474420907 8.387311561294732 0 0 0
2358 17 1 11.47477556714042 25.87945252125477 9.862281540090708 0 0 0
4039 46 1 17.290821341457807 19.374710396849554 12.087228248116796 0 0 0
2360 29 1 11.612866792884137 1.5308321988450424 0.9031728757107522 0 0 0
2361 29 1 12.746038594913559 2.058297657757395 1.7365384533466417 0 0 0
2362 29 1 12.51795900230201 1.8739841001627602 3.218030874576867 0 0 0
2363 29 1 13.850917002998758 2.1343343759504503 3.9091718011270333 0 0 0
2364 29 1 13.83531039892357 1.5824781658106188 5.349751896112136 0 0 0
1159 9 1 14.499790455531246 14.552640101245355 23.549541351839558 0 0 0
2365 29 1 14.967610794622734 2.169509228005749 6.234854916752218 0 0 0
3197 26 1 18.794821617757833 10.840466532592837 14.282551901275173 0 0 0
5859 13 1 0.7198008021615526 12.173622561112294 22.73960225389038 1 0 0
463 3 1 14.789736377450188 5.7823148556869555 23.438109967641612 0 0 0
760 4 1 7.1723891622927605 8.429526698031987 1.2546626959376157 0 0 0
7690 1 1 1.4518638285318182 5.755307221290262 16.391855270771558 0 0 0
4786 35 1 16.079290108838 25.96613169021858 1.4257011580916175 0 0 1
2807 30 1 13.497735858868166 5.7425751358817845 4.005159021092507 0 0 0
2808 30 1 13.333094548815879 6.376661846986014 5.403830109347311 0 0 0
2809 30 1 14.633241328447683 6.431760035278623 6.165017125616155 0 0 0
2810 30 1 14.479734933305402 6.687097640009951 7.649061675515576 0 0 0
2811 30 1 15.892339383980415 6.5493854838334356 8.284366917215033 0 0 0
2812 30 1 15.901275628745006 6.591757342040831 9.834747860347179 0 0 0
7235 52 1 1.9780138585437599 2.1120791661492153 17.536751565421618 0 0 0
9189 61 1 3.380601322852821 21.26063463386905 10.154530709197257 0 0 0
3861 31 1 16.2917595105989 17.66706089171902 1.1447468557099736 0 0 0
3030 30 1 12.219753703294009 5.989822823053719 3.1067701741546454 0 0 0
521 3 1 1.6573102152530825 6.0990032598638955 0.5394525351248571 0 0 0
7453 5 1 1.461644871860336 4.050847818887526 8.908614696975818 0 0 0
9193 61 1 5.54917721798144 21.165099815803867 14.831800466338205 0 0 0
4030 46 1 12.731227048911332 19.73270110808141 1.4681755890625836 0 0 0
3189 26 1 13.918421283041479 10.178659273257324 5.459319115388468 0 0 0
3190 26 1 15.08933173336724 10.79137808137508 6.203709598141566 0 0 0
3191 26 1 15.036938360798874 10.41173479170476 7.700132587732724 0 0 0
3192 26 1 16.182889737717623 11.001626009924475 8.540535072432228 0 0 0
3193 26 1 16.242427714494365 10.51374154948859 9.998060976685064 0 0 0
3194 26 1 17.50995881879384 10.97783302554549 10.701012209224553 0 0 0
3195 26 1 17.52437905079404 10.57863566817768 12.174616359793799 0 0 0
9285 62 1 4.409423554752594 23.194011194955618 21.341370185019603 0 0 0
8892 59 1 1.8021216345269824 18.844427531356818 17.629658989406778 0 0 0
3412 26 1 13.856152155308457 10.558047723067368 3.96937160018019 0 0 0
7237 52 1 3.131578586757205 1.8299499246357231 19.812381121350345 0 0 0
3417 29 1 17.27197960598874 13.304246109471237 2.142836328035146 0 0 0
697 4 1 16.58733924561932 8.41607098120837 19.26514257086583 0 0 0
2805 33 1 17.512914132304125 3.7143909852148824 1.768537103980427 0 0 1
3637 30 1 14.582139183752272 14.99615540175768 7.127480110717202 0 0 0
3638 30 1 15.93355321731621 15.168661298082238 7.826259787157942 0 0 0
3639 30 1 15.795681680859124 14.83501530962831 9.277495244024047 0 0 0
3640 30 1 17.138923266211563 14.964376213997244 9.994645148272353 0 0 0
8509 56 1 0.6572920643324123 14.383981310532935 15.760022879851038 0 0 0
8515 56 1 4.284610564166767 14.470585929582567 22.69019894478505 0 0 0
1320 12 1 18.140949875422116 17.310111923452574 22.825684402298638 0 0 0
9494 63 1 0.29127336833471495 25.76888300106557 5.600084606999188 0 0 0
3859 30 1 13.406934980250753 15.41322804249965 4.93473911118953 0 0 0
3860 30 1 14.702928418629156 15.371719527413303 5.696744709308973 0 0 0
7240 52 1 5.782893717551333 1.3751292667654738 22.62277352592421 0 0 0
8131 56 1 1.8707357186684157 10.325859372909175 17.84006728388346 0 0 0
239 3 1 17.056085688108986 3.889159246324993 21.42574723309878 0 0 0
4415 38 1 14.731790837238593 23.91175394238456 7.545934866054106 0 0 0
460 3 1 12.348947357987422 5.38478616253205 20.36177645601409 0 0 0
4255 6 1 17.429665595049688 22.097225924164682 3.476881392032727 0 0 0
9187 61 1 2.199197150557616 21.632599190828433 7.934554175691455 0 0 0
3409 24 1 11.245762578981537 10.192209847992476 1.1875850984817449 0 0 1
8664 62 1 0.5465341075971643 17.706605655685394 7.0222488834944 0 0 0
3856 39 1 12.443719260025809 15.149117471153179 1.1800012495782506 0 0 1
4032 46 1 13.927363631828165 19.36998308379392 3.742603060651162 0 0 0
1844 59 1 17.188668019555273 21.827743913685037 20.590939073304046 0 0 0
8894 59 1 3.072430849628848 18.852659905728736 19.960006980700005 0 0 0
1748 43 1 3.032930766880096 19.56205914659238 2.639241859007095 0 0 0
238 3 1 17.345440730321837 3.9214015666451867 19.93814029578099 0 0 0
3855 39 1 11.230551272277047 14.667885940206677 0.3852087925592448 0 0 1
2371 29 1 18.36354237506651 2.1586872148394183 12.948493898083395 0 0 0
2369 29 1 17.15186504354896 2.5657544809560484 10.826785685975901 0 0 0
4787 35 1 17.20743865287318 26.49704018792286 2.345334559693616 0 0 1
2350 16 1 6.649366907035781 26.204491809796785 0.9061393622690693 0 0 1
4410 38 1 12.610589510059528 24.13141035970524 1.721427627886999 0 0 0
4411 38 1 12.483638649252823 23.68914604038723 3.1223818854310976 0 0 0
4412 38 1 13.753673597439127 23.952893410909496 3.829957073433579 0 0 0
4413 38 1 13.646919656202556 23.766418540489 5.3233421884858805 0 0 0
4414 38 1 14.977650777007781 23.876460137858864 6.030072784236248 0 0 0
8136 56 1 5.811319560070207 10.610127638140854 23.049881077240066 0 0 0
7454 5 1 2.5161974809717433 3.2912592512333405 9.728238911798124 0 0 0
2815 30 1 18.389106191319716 6.467967106156873 12.79154205416059 0 0 0
1065 8 1 7.7477399725753715 12.440003372003138 2.5847794806333177 0 0 1
3028 30 1 11.070752988280313 5.900229154763052 0.870501929267234 0 0 0
9192 61 1 4.316754433788228 21.321109773890687 13.920080829428127 0 0 0
4033 46 1 13.64933806767365 19.332435481266973 5.2262804715546745 0 0 0
9509 63 1 8.992655078259176 25.49434924975396 22.832617219521936 0 0 0
9496 63 1 1.6871895999028985 25.430923324278364 7.753633171120996 0 0 0
7234 52 1 1.5855747198209427 1.4319148253951115 16.268179328862498 0 0 0
1906 59 1 7.93264773773344 21.397042016714305 0.9581748105939116 0 0 0
9195 61 1 6.5073646447516325 21.35084995166082 17.22729078116228 0 0 0
219 17 1 3.0000477742777476 1.870940751257983 2.6418427447408086 0 0 0
9196 61 1 6.559379898205608 21.735354227819283 18.703388944779025 0 0 0
8130 56 1 2.1003331019230282 10.64379682429671 16.348803132915453 0 0 0
4037 46 1 15.92606046721466 19.63228444030443 9.843956942814504 0 0 0
9499 63 1 3.070040717750459 25.999968659901537 11.408504335729354 0 0 0
4038 46 1 17.230551017201737 19.30115975927488 10.526248632103785 0 0 0
2126 15 1 3.0008416401630646 23.774208833256214 1.0773069696982944 0 0 1
9497 63 1 1.7639105808297653 25.804674742580417 9.269578118372255 0 0 0
8423 40 1 0.5805738156741805 12.712080542161411 6.379491666452906 0 0 0
9506 63 1 7.882431482789438 25.34446376874729 19.00909946587667 0 0 0
8896 59 1 4.29669938442225 18.73322695415435 22.2716436213111 0 0 0
1316 12 1 15.868670106760046 17.352113481351676 18.17331209924221 0 0 0
9495 63 1 0.5062150817990471 26.173859374974565 7.0308612815100995 0 0 0
2816 30 1 18.053609294269982 6.266731016983324 14.312626792321096 0 0 0
9502 63 1 5.370638123487427 25.132609780337436 14.448341657074138 0 0 0
1318 12 1 16.964429842685266 17.542753536283875 20.47737301713763 0 0 0
2145 17 1 18.61303028039973 26.225436481934196 21.94826645016073 0 0 0
4418 38 1 17.089223377279556 23.817061420182718 10.683832613708926 0 0 0
1746 43 1 1.7859343566377481 19.42623559047539 0.4641780860500251 0 0 0
9505 63 1 6.656486530837909 25.763561017284566 18.135353942783766 0 0 0
7693 1 1 2.7708140709592635 6.022775469158001 20.072265087014852 0 0 0
3029 30 1 12.360628347197164 5.615213600257475 1.6314701756547014 0 0 0
8897 59 1 4.816080073688522 19.540469857733267 23.470776260918907 0 0 0
698 4 1 17.031258268808354 7.618136963385697 20.479257412517853 0 0 0
2352 16 1 8.033062948720357 26.03894893430435 3.0387997810742347 0 0 1
9198 61 1 7.861251576426531 21.73910032440017 20.715994237759098 0 0 0
8666 62 1 2.012207954666697 17.056384725565106 9.043116853056667 0 0 0
3862 31 1 17.470237890430734 17.60634745806806 2.0547064342595966 0 0 0
4034 46 1 14.955158222390907 19.471725021702856 6.029429088077481 0 0 0
4788 35 1 17.19402146258327 25.77968018666571 3.7315564278572526 0 0 1
7465 5 1 9.211559166522244 3.971112954494027 22.30219345135297 0 0 0
7914 9 1 8.919392837611115 8.21258643932868 22.406574932030157 0 0 0
8891 59 1 0.8540627358901245 19.670212332790324 16.739387610689814 1 0 0
7466 5 1 10.30651853598468 3.3403134794053395 23.040390802101367 0 0 0
446 3 1 7.974839264877472 3.8059284041218073 1.3830840606338148 0 0 0
4031 46 1 12.708521705844719 19.05795132605059 2.875195579403256 0 0 0
2128 63 1 4.265138587015163 23.788730933068674 3.2279864088156156 0 0 0
9504 63 1 6.727817079963231 25.340003605789747 16.644190091855563 0 0 0
1831 14 1 6.542751000373521 21.28648541619204 0.3401915758301214 0 0 1
4420 38 1 18.419749029257375 23.33907546473854 12.683270457999892 0 0 0
4789 35 1 18.12411759163054 26.48480019493385 4.6853350509844685 0 0 1
7455 5 1 2.7367080291909502 3.903591732572993 11.084638714187173 0 0 0
7456 5 1 3.7743762504540435 3.1964142248102996 11.978786912375995 0 0 0
7457 5 1 4.023236927010465 3.8678210153351507 13.358385698608737 0 0 0
7458 5 1 4.94536334453632 3.104700875732554 14.288204572871415 0 0 0
7459 5 1 5.423636573609967 3.9525127668216564 15.446342029817778 0 0 0
7460 5 1 5.957844169832304 3.2339347374151077 16.696170020333952 0 0 0
7461 5 1 6.428036121874843 4.172532338349715 17.898594324965256 0 0 0
7462 5 1 7.170164333175073 3.423602552226726 18.985081511962484 0 0 0
7463 5 1 7.524931115397891 4.100088509979944 20.286620973091612 0 0 0
7464 5 1 8.701969630366802 3.35417100702656 20.988092140321108 0 0 0
4710 34 1 18.32978881257832 25.987479475148245 6.126262245180046 0 0 0
1304 10 1 3.1807460516912163 15.56154825359725 0.9334321835866563 0 0 1
700 4 1 18.317418992557617 7.625482499551624 22.676495139810775 0 0 0
9186 61 1 0.9564941141568173 21.444983121636103 7.086118109504751 0 0 0
1922 63 1 14.802581994255863 23.513742783036452 23.6602973227563 0 0 0
9498 63 1 3.072999705173419 25.423691569233263 9.969130052218171 0 0 0
4029 46 1 11.48761674518196 19.420491806911407 0.6627038241439904 0 0 0
9188 61 1 2.042286339383988 21.257496114808827 9.406935363912881 0 0 0
3864 31 1 18.369749383663397 17.846751678360032 4.442804632015084 0 0 0
777 47 1 13.516085123390734 9.594660956067369 22.35049679218077 0 0 0
3863 31 1 17.132841689556827 17.600069839672265 3.5217172713014997 0 0 0
3032 22 1 17.1902537588723 8.358340322680796 2.2232334256760407 0 0 0
2814 30 1 17.107277946336392 6.167632035696907 12.052765487563706 0 0 0
3035 22 1 18.37578317632464 8.132539338555375 5.9610565621659335 0 0 0
1921 63 1 13.562960633270457 23.10734589811715 22.83419270619146 0 0 0
8129 56 1 0.9483429391774686 10.048969634148385 15.474940829939058 0 0 0
2370 29 1 17.020158049369854 1.9916409316400023 12.246476749527101 0 0 0
2366 29 1 14.952077562214338 1.703899807798283 7.63851706831727 0 0 0
9197 61 1 7.939238436020866 21.4785106103793 19.235926287519302 0 0 0
4035 46 1 14.707474598196347 19.54973023703038 7.53551500699911 0 0 0
8435 40 1 8.053701350432844 11.805352008824054 19.976522174944716 0 0 0
7902 9 1 1.3793114619425249 8.487699454660024 9.003418778622628 0 0 0
7903 9 1 2.4823272902318347 7.861197598117567 9.901967228254795 0 0 0
7904 9 1 2.3829790942257567 8.196829195476601 11.410944410348975 0 0 0
7905 9 1 3.71750092659629 7.801404515755147 12.053580001266392 0 0 0
7906 9 1 3.973416081153153 8.132269488519237 13.528504441399878 0 0 0
7907 9 1 5.292198832734493 7.747035920828704 14.206189399644124 0 0 0
7908 9 1 5.2460884979039655 8.19213562288064 15.65805075876371 0 0 0