LAMMPS data file via write_data, version 23 Jun 2022, timestep = 11111117

9706 atoms
2 atom types
9690 bonds
3 bond types
9674 angles
3 angle types
9658 dihedrals
3 dihedral types

0 36.89775039 xlo xhi
0 26.67072 ylo yhi
29.575399889654634 207.1762045103683 zlo zhi
0 5.587708019584381 0 xy xz yz

Masses

1 14
2 15

Pair Coeffs # lj/cut/omp

1 0.0914 3.95
2 0.1947 3.75

Bond Coeffs # harmonic/omp

1 449.5 1.53
2 449.5 1.53
3 449.5 1.53

Angle Coeffs # harmonic/omp

1 62.0967 114
2 62.0967 114
3 62.0967 114

Dihedral Coeffs # opls/omp

1 1.411 -0.271 3.145 0
2 1.411 -0.271 3.145 0
3 1.411 -0.271 3.145 0

Atoms # molecular

1 1 1 5.243545353045513 0.08646248500040443 35.69745299867 0 0 0
2 1 1 5.580900474398932 0.3527337590981569 37.196145550913705 0 0 0
3 1 1 6.82084125345595 1.1382484380611666 37.274320262375596 0 0 0
4 1 1 7.2051343564076715 1.1757237440298867 38.73303811585316 0 0 0
5 1 1 8.296290209429689 2.2689678076694153 39.11879518379507 0 0 0
6 1 1 8.393101953226559 2.573346198780449 40.57542491237885 0 0 0
7 1 1 9.745610173363854 3.098766524281552 41.10594141579446 0 0 0
8 1 1 9.673781757119507 3.5006922938433056 42.51280243769446 0 0 0
9 1 1 11.138781792699618 3.850307734221709 42.90566433877701 0 0 0
10 1 1 11.649395391054604 2.994383205240767 44.01617112277823 0 0 0
3283 23 1 13.21890279129859 12.814504533346152 30.051992046831792 0 0 0
171 3 1 16.794530955140136 5.35151957650577 44.08195444069891 0 0 0
7807 34 1 1.6167633605346337 5.244902258507061 43.18898363189373 0 0 0
599 5 1 0.750399448868154 3.8434049610421277 30.328881361831137 0 0 1
607 51 1 5.107708755828296 4.8581751340062205 30.859485108949173 0 0 0
9634 3 1 0.778923209767621 22.80868892257703 35.68606710675023 0 0 0
2431 11 1 16.248363345385425 4.624377593474127 37.10982310753677 0 0 0
4181 61 1 14.11435638152064 22.387835703707037 30.240903161886436 0 0 0
75 1 1 1.32618027241401 25.715381156956692 31.997271870067607 0 -1 0
76 1 1 2.3492712742968433 24.667537844469937 32.159834629757164 0 -1 0
77 1 1 2.682747786878933 24.732186120486038 33.690859125239484 0 -1 0
78 1 1 3.6787761037477305 25.82776535111118 34.0342555218173 0 -1 0
79 1 1 4.254601832137492 25.63703519065644 35.402807872382986 0 -1 0
159 3 1 7.404136533241245 2.3700931858578396 33.84236536210724 0 0 0
160 3 1 8.3042848805524 3.569335635432483 34.138096348156296 0 0 0
161 3 1 8.745391870872806 3.5462298268043906 35.575475933515676 0 0 0
162 3 1 9.793183732788558 4.583303529871009 36.00442940668087 0 0 0
163 3 1 10.277464923450296 4.472132218208172 37.39112338501144 0 0 0
164 3 1 11.463194072465278 5.2840997531472125 37.67024543928227 0 0 0
165 3 1 11.905408099579331 5.415967045712742 39.16600376322547 0 0 0
166 3 1 13.198357613241006 6.286639336571145 39.143283120437246 0 0 0
167 3 1 13.745503029565644 6.520740813676633 40.552930478052346 0 0 0
168 3 1 14.289735894877108 5.307828151570331 41.258558311815506 0 0 0
169 3 1 15.422785124136805 5.779359371254413 42.048608060400866 0 0 0
4183 61 1 15.883742912767469 23.251622737697794 32.02487420993746 0 0 0
3961 42 1 18.278903480719443 21.162594671610588 41.65437027625171 0 0 0
1497 9 1 1.4562294989100888 12.65920802773675 32.2104347811808 0 0 0
1514 10 1 15.844460263120082 18.045471249633344 43.07229776235184 0 0 0
2806 19 1 14.401834384341946 4.773563283677256 29.963578839924484 0 0 0
381 3 1 6.054262432460613 1.2133751293748802 32.091605620041754 0 0 0
382 3 1 6.8944651491207996 2.411091866141174 32.43520587441179 0 0 0
383 55 1 6.306303545124721 5.533309572394081 37.38690952627172 0 0 0
384 55 1 6.799514437711908 5.5219725007420495 38.811715189219385 0 0 0
385 55 1 7.786784769477255 6.652468952864542 39.23703983525766 0 0 0
386 55 1 8.45242264270378 6.387251315531487 40.47937132623783 0 0 0
387 55 1 9.3416801243745 7.477145012317942 41.07033154430408 0 0 0
388 55 1 9.932968722229294 7.088077767877414 42.333243139069864 0 0 0
389 55 1 11.22865869511291 7.732957086094126 42.78490807522508 0 0 0
390 55 1 11.472083071476785 6.878320327374885 44.03364063535104 0 0 0
391 55 1 12.801735736896031 7.355960356447709 44.6503602396042 0 0 0
392 55 1 13.272530209633176 6.711406439313798 45.95195177406426 0 0 0
2965 48 1 14.455376702659999 9.170804217014027 30.065413952984667 0 0 0
4411 30 1 13.791662308687824 24.889013538918483 34.63261712917635 0 0 0
8183 56 1 0.45128770206022906 9.322147212884007 41.7819345201069 0 0 0
4172 28 1 9.367001856892928 18.00591941959123 29.632079171281827 0 0 1
7359 16 1 1.6818620218356148 0.5233983547255737 43.05312284356801 0 0 0
7579 51 1 0.4948641119501155 0.35580927818898156 35.21529652465239 0 0 0
1276 8 1 5.190009510735955 9.461071207059055 31.037860303796656 0 0 0
2966 48 1 15.241817373652907 9.101851658837052 31.36527923628263 0 0 0
4180 61 1 13.386349553318222 21.09833324820316 29.90132959235943 0 0 0
1740 8 1 14.893640442649792 19.668556188315325 47.20633705345834 0 0 0
604 55 1 4.1600152225412526 3.2561622464820585 35.182138079738195 0 0 0
605 55 1 4.745559739432662 4.52385562254011 35.68209352269319 0 0 0
606 55 1 5.717066042015522 4.257214918074523 36.75346976420455 0 0 0
1048 15 1 0.21562524764455893 9.334428509579624 30.51655099837101 0 0 0
608 51 1 5.9047848102826945 6.118221189433041 31.121330219454 0 0 0
609 51 1 6.386538317698117 6.034688786063141 32.55392430254121 0 0 0
610 51 1 7.521726773642746 6.962175525123567 32.742961193443755 0 0 0
611 51 1 7.855402099542575 7.235114045499627 34.181014909481135 0 0 0
612 51 1 9.05524897350535 8.058227670842562 34.68113453169397 0 0 0
613 51 1 8.994577218006599 8.198265484233575 36.15378362064337 0 0 0
614 51 1 10.349216267188064 8.840470803155462 36.58051502899959 0 0 0
615 51 1 10.551985736031629 9.409742835421332 37.92467248609398 0 0 0
616 51 1 11.80121674125528 10.05329263037679 38.215969935449834 0 0 0
617 51 1 12.226030631538874 9.99831216985761 39.630576075084846 0 0 0
1066 8 1 15.813286604170074 13.045149884261734 42.76899260428761 0 0 0
2820 4 1 17.548855767184968 8.191578922735577 40.023509760525094 0 0 0
6690 20 1 1.3747518999427317 21.44776289735864 46.30339616765215 0 0 0
3722 27 1 9.159432500510423 13.709643787074228 29.62660842606532 0 0 1
2587 19 1 18.424943631218724 6.2997465091720555 34.917909983687544 0 0 0
8864 61 1 1.5575506956386764 15.070318592741856 37.22661082498077 0 0 0
2503 11 1 10.249156207769754 1.4310862507574427 31.08011162656022 0 0 0
831 15 1 5.678296259375527 9.529145065747477 36.12518077196026 0 0 0
832 15 1 5.951751640759338 9.17634773455753 37.56823922391795 0 0 0
833 15 1 6.833796201739229 10.389911582876818 37.98555279249891 0 0 0
834 15 1 7.37790603584056 10.472924782871008 39.41319271040811 0 0 0
835 15 1 8.376013855797733 11.530518024777693 39.73276509160155 0 0 0
836 15 1 9.120693813730037 11.230555908297227 41.03758029261573 0 0 0
837 15 1 10.226278861627824 12.251259280904735 41.36808146605263 0 0 0
838 15 1 10.69288603742389 12.045184970541033 42.75922939656219 0 0 0
839 15 1 11.632331148662447 13.187324243759852 43.07275861796025 0 0 0
840 15 1 12.179062192915428 12.62973141355631 44.37374917360052 0 0 0
841 15 1 12.584295062223827 11.280321598708275 44.17974807713054 0 0 0
3952 26 1 17.31445663138242 19.382688941163618 33.40624283312554 0 0 0
3509 24 1 17.940922134109087 17.46878286617183 38.79539735878365 0 0 0
9353 10 1 4.725048906436609 23.468990581240597 46.05011003237662 0 0 0
3948 25 1 14.371695358390875 17.51161228335899 30.025469586919122 0 0 1
2814 4 1 12.546527559795658 6.831067780346601 34.64996144528843 0 0 0
619 51 1 14.08145857941486 9.833752716624339 41.37652758154892 0 0 0
3043 48 1 13.669865289325159 7.989739943286541 29.739154095220442 0 0 0
1050 15 1 1.9458028045411417 8.343369978707656 32.15984156199672 0 0 0
1051 15 1 2.529980073446434 7.006993389154391 32.6678035145956 0 0 0
1052 15 1 3.2654325663648933 7.15020637235719 34.05150501974865 0 0 0
1053 15 1 3.987588796125453 8.432073396230468 34.39895731527514 0 0 0
1054 15 1 4.876293903844141 8.400413310925565 35.67459735785218 0 0 0
1055 8 1 7.303151049107456 11.760944383734655 33.329221801075015 0 0 0
1056 8 1 8.257045312928117 11.536379512674605 34.48545073482078 0 0 0
1057 8 1 8.95801268840206 12.716365238577724 35.13712641933159 0 0 0
1058 8 1 10.023103101808113 12.470147831040137 36.1196775121971 0 0 0
1059 8 1 10.410348615870806 13.687533460273213 36.973868710557525 0 0 0
1060 8 1 11.52320008607917 13.426243633725958 37.98222354572134 0 0 0
1061 8 1 12.045635474138205 14.611425978229377 38.758993344093525 0 0 0
1062 8 1 13.21643351556144 14.106300545945093 39.54194305919709 0 0 0
1063 8 1 13.714302097120454 15.220849491778264 40.50295265142995 0 0 0
1064 8 1 14.955712821719937 14.912535953159505 41.36591602423177 0 0 0
1065 8 1 14.66969540479178 13.675892895319711 42.162468778145616 0 0 0
8343 38 1 0.7243921921108816 9.560920327099998 35.62296569070582 0 0 0
3200 20 1 9.523152247006344 9.591109900177013 31.061401138075155 0 0 0
9642 3 1 6.783035231328271 0.324833658274442 42.80779211014783 0 1 0
7812 34 1 6.028655904067984 7.146070761820483 47.121272884590255 0 0 0
1496 9 1 0.8047336552981734 12.359115771334679 30.8959109332921 0 0 0
1277 8 1 5.8704182620412375 10.64921717699183 31.586482753816057 0 0 0
1278 8 1 6.496988021982457 10.504123536935387 33.03771734508534 0 0 0
1279 9 1 5.960155475538122 13.615955007819858 37.40927103555567 0 0 0
1280 9 1 6.946248286756314 14.781758379995837 37.81723324451229 0 0 0
1281 9 1 7.347756453214152 14.850584020283982 39.34229651528146 0 0 0
1282 9 1 8.728194332570853 15.551348411913057 39.391582779002675 0 0 0
1283 9 1 8.946805192504597 15.750560569946401 40.88294446535126 0 0 0
1284 9 1 10.217391955311054 16.57667815628684 41.22873244619591 0 0 0
1285 9 1 10.518251706587565 16.345517751014846 42.67113465670788 0 0 0
1286 9 1 11.724166694067126 17.098018751212503 43.18754305269434 0 0 0
1287 9 1 11.886404922202786 16.830212633221976 44.696690545958454 0 0 0
1288 9 1 13.164509365526964 16.02057078626606 44.92160398157506 0 0 0
1289 9 1 13.812461363097798 16.51002498857613 46.21436602567637 0 0 0
8348 38 1 3.8283697572056723 11.876923942526501 40.764754615834356 0 0 0
621 51 1 15.739750537300116 9.296665203452648 42.986112598925374 0 0 0
3289 23 1 18.171699879076368 16.108753721831587 34.998937517147624 0 0 0
9252 64 1 4.877077875960523 21.581571578532387 40.186599777063165 0 0 0
4182 61 1 14.879551208876016 22.176098941653336 31.5371099655764 0 0 0
7806 34 1 1.306203121129534 5.171307642376321 41.626677181126524 0 0 0
600 55 1 1.0675752546634003 3.694938876303902 31.777317027983635 0 0 0
1498 9 1 2.6152446680160075 11.636897687176921 32.52466195005221 0 0 0
1499 9 1 3.121668765673277 11.62221189938185 33.91567123644722 0 0 0
1500 9 1 3.8010781309137354 12.907591143529165 34.292549603701445 0 0 0
1501 9 1 4.599367284237334 12.632895877152745 35.53473888502477 0 0 0
1502 9 1 5.238878231922246 13.916867041078318 36.08808935688919 0 0 0
1503 10 1 7.444303925604748 15.789433018663116 33.90843175132852 0 0 0
1504 10 1 8.672279067831157 16.615949779545165 34.30911900043386 0 0 0
1505 10 1 8.983226805287126 16.724142577851737 35.76891390848417 0 0 0
1506 10 1 10.159337783887255 17.654549346490615 36.024258174197094 0 0 0
1507 10 1 10.706865456300909 17.631186237686922 37.48463993174762 0 0 0
1508 10 1 11.702095931144203 18.682609440913936 37.72865142578492 0 0 0
1509 10 1 12.260074392574344 18.691080127521197 39.10698851152944 0 0 0
1510 10 1 13.202849988397737 19.85548914377508 39.259678685742315 0 0 0
1511 10 1 13.70608077359308 20.11827366109749 40.62766336981394 0 0 0
1512 10 1 14.150591418850228 18.789520788814404 41.28939588617773 0 0 0
2043 14 1 18.154428195684815 22.52208771045626 46.07951394931017 0 0 0
9639 3 1 4.076711324872685 25.272119458675927 40.48916615665269 0 0 0
9638 3 1 3.702206446025923 25.10774085415763 39.08479095758548 0 0 0
9258 64 1 8.832573104789093 22.500529029160756 45.770141715477365 0 0 0
2970 48 1 17.927244691750868 10.711364943562424 35.21014298153358 0 0 0
1724 10 1 5.591241117622117 14.704050935319511 30.70445448079955 0 0 0
1725 10 1 5.868251657530309 14.894307558780598 32.142920410891286 0 0 0
1726 10 1 7.131058379168441 15.753282455943436 32.41130156958626 0 0 0
1727 8 1 5.307008174764663 18.286927459305737 35.644834597316496 0 0 0
1728 8 1 6.114981753550069 18.008193641236833 36.93855950327813 0 0 0
1729 8 1 6.767908104945338 19.143119298996673 37.68478312483734 0 0 0
1730 8 1 7.557612247036697 18.79055839478974 38.960134797282464 0 0 0
1731 8 1 8.283214983893052 19.98599403320045 39.56198666007713 0 0 0
1732 8 1 9.065044097112391 19.740799838904323 40.88305639711723 0 0 0
1733 8 1 9.63670833096686 21.044428283363896 41.38063420130806 0 0 0
1734 8 1 10.716457980666764 20.72228404852071 42.462367118655536 0 0 0
1735 8 1 11.380694476152133 21.947591071855978 43.102073171512956 0 0 0
1736 8 1 12.614229286781528 21.44144518697365 43.70102310427792 0 0 0
1737 8 1 12.141289644610415 20.60324683448593 44.81035311551922 0 0 0
1738 8 1 13.217203524290234 19.79691435114714 45.52604198189673 0 0 0
7580 51 1 0.7757643841355385 0.19775636871017996 36.67640810333785 0 0 0
379 3 1 4.442186096425485 0.23479144357503043 30.37439383783276 0 0 0
9641 3 1 5.733206578201601 25.988304647627583 42.32002509640715 0 0 0
9637 3 1 2.4433717329283895 24.26304826395256 38.86467782825695 0 0 0
4409 30 1 12.188837824100204 24.169254585784387 32.79330923539534 0 0 0
3131 20 1 17.68610420755493 12.690230678138368 39.7291386372853 0 0 0
8107 55 1 8.80338435485988 8.843106439845176 45.876388284723916 0 0 0
1947 8 1 2.2983595639596324 15.98233249826348 32.18109338533117 0 0 0
1948 8 1 2.7686735333278665 16.155614785135086 33.58661398972863 0 0 0
1949 8 1 3.9165449944073307 17.134277725713265 33.916810663318515 0 0 0
1950 8 1 4.09951678406646 17.470337850772403 35.357661706813786 0 0 0
2030 14 1 8.573727606077917 21.03912900395752 33.98642641618478 0 0 0
2031 14 1 9.136317344479506 20.95175756894343 35.40677002821183 0 0 0
2032 14 1 10.093158441056039 22.13329191119108 35.79557940225127 0 0 0
2033 14 1 10.704980212801061 22.033751720965995 37.13782688491036 0 0 0
2034 14 1 11.502922255832901 23.259269054933842 37.58221699302901 0 0 0
2035 14 1 11.93095022428304 23.248627457430494 39.06749935431226 0 0 0
2036 14 1 13.086986465981983 24.32551878739203 39.11147382039809 0 0 0
2037 14 1 13.552781877543996 24.81393958731054 40.49331195527137 0 0 0
2038 14 1 14.07371191528223 23.705334310590345 41.31060173362611 0 0 0
2039 14 1 15.06596214275772 24.125097872785556 42.406687151264016 0 0 0
1516 10 1 17.61677182525874 17.550906130367963 44.85864010267797 0 0 0
843 15 1 14.243642774884542 11.42869274711095 46.06883372517538 0 0 0
8575 41 1 2.7433500236633512 14.730039274942836 43.53762362705686 0 0 0
2815 4 1 13.913594018598593 7.360273772335275 34.90912816132867 0 0 0
2105 14 1 5.423695021618415 19.131705745304668 30.62182276209053 0 0 0
2106 14 1 5.9451638833175 19.210669258044604 32.07960847960818 0 0 0
2107 14 1 7.308095988148183 19.964219326371982 32.141564620449095 0 0 0
2108 14 1 7.837005568897995 19.809917674636342 33.54188791606458 0 0 0
2109 15 1 3.7766765543242697 21.65753203223966 33.91497575486313 0 0 0
2110 15 1 4.315233643926773 21.434666611154718 35.297109800166595 0 0 0
2111 15 1 5.478086023896923 22.32592796804819 35.609586088113495 0 0 0
2112 15 1 5.849766446525906 22.422572278505047 37.071988056663514 0 0 0
2113 15 1 6.78599440450369 23.518203489706707 37.354510555468586 0 0 0
2114 15 1 7.360892240766907 23.31894570052316 38.766008342386925 0 0 0
2115 15 1 8.18584791605194 24.581562081392406 39.13140422774492 0 0 0
2116 15 1 8.826757920840457 24.50599310343063 40.4624819329428 0 0 0
2117 15 1 9.721081342527391 25.702326907249113 40.78648038449216 0 0 0
2118 15 1 10.33304518849648 25.447655623803374 42.18601463843139 0 0 0
2119 15 1 11.392865394900797 26.521257139203517 42.51151624857316 0 0 0
2120 15 1 11.803334796129528 26.374252877573113 44.0002654228552 0 0 0
8874 61 1 9.079113622800612 18.108646094421967 45.99594138968591 0 0 0
3725 27 1 11.120725181823499 14.32907960882512 32.91828811428597 0 0 1
9351 10 1 3.6015085738441206 23.763779342892725 43.664829872399494 0 0 0
4418 30 1 18.274915647788994 25.095162519079896 41.384541293498735 0 0 0
4406 30 1 9.363134016671452 22.439150433302917 30.849385244581327 0 0 0
8346 38 1 2.392821355049167 10.860641211440655 39.102587254312034 0 0 0
9348 10 1 0.5164524630165843 22.114639954230732 41.856950575426765 0 0 0
2805 18 1 13.537452715388445 3.5942086805636277 29.60790753526857 0 0 1
2185 15 1 1.1732515647027915 21.514906501319448 31.700709409467468 0 0 0
2186 15 1 2.1739627903136647 20.51573269345543 32.16989287726344 0 0 0
2187 15 1 2.753382844335648 20.561847331869416 33.54222993514159 0 0 0
2346 16 1 11.518673964495855 1.1048067747056955 37.2539850977214 0 1 0
2347 16 1 11.76582708355042 1.028311981643634 38.752914033666585 0 1 0
2348 16 1 12.674830804178463 2.1151238642388157 39.340256476672515 0 1 0
2349 16 1 13.163284880749472 2.1136457616383537 40.74636670131917 0 1 0
2350 16 1 14.397622878978881 1.2556094798287527 41.23073548405592 0 1 0
2351 16 1 14.94427392151296 1.4124199838318898 42.60838091109837 0 1 0
8097 55 1 1.3402681566182917 5.165696092835858 37.08037697708276 0 0 0
2342 40 1 4.356510786795656 22.381795385275904 30.37739899602872 0 0 1
8345 38 1 2.0963968653397336 10.827034881242012 37.5747419690504 0 0 0
8350 38 1 5.380562756633613 12.71633957124569 42.49394769741107 0 0 0
5853 38 1 0.7298682015950633 12.152253262702985 47.00639838055399 1 0 0
8865 61 1 2.0793274911038866 15.099995423419772 38.66041280318876 0 0 0
3199 20 1 9.361156343692455 9.050322754277786 29.62739843210257 0 0 0
2042 14 1 17.196639872609502 22.14283236921881 45.0183652881543 0 0 0
2421 16 1 8.46822873370754 25.711007983652454 33.89295496039899 0 0 0
2422 16 1 8.937546687260745 25.602942955013 35.387648693749256 0 0 0
2423 16 1 10.074541345453099 26.53796290722737 35.54477826185587 0 0 0
2424 16 1 10.630747217177191 26.640984317715155 36.92851067907607 0 0 0
2425 11 1 11.05262644223008 1.1776461207068043 32.43293580653329 0 0 0
2426 11 1 11.756159520638876 2.4029722017961834 32.8642506722939 0 0 0
2427 11 1 12.55844894631357 2.166518218781829 34.16018007924577 0 0 0
2428 11 1 13.423556092167882 3.3848365888880547 34.65621125857981 0 0 0
2429 11 1 14.318549699085604 3.198214926784869 35.9046232751829 0 0 0
2430 11 1 15.119627134495373 4.444921965505829 36.07260025433348 0 0 0
8951 14 1 2.639797389188685 19.40834034071407 43.575745619206266 0 0 0
2122 15 1 12.926275861145747 24.571749497501365 45.630060054913734 0 0 0
2967 48 1 16.15048861659253 10.136949491617463 31.847970927606127 0 0 0
3510 24 1 17.712312500311835 16.933495200816083 40.17814669757509 0 0 0
2583 19 1 14.715561194622156 5.037828389143778 31.427120670565408 0 0 0
2040 14 1 15.598164641715348 22.88386637738053 43.19976350396066 0 0 0
12 1 1 13.356600451744521 2.352231033176427 45.69821211046152 0 0 0
3950 25 1 15.810209760322433 18.29044397151866 31.70410983790545 0 0 1
2434 11 1 17.681444467187486 3.4220412233497512 40.429066440269644 0 0 0
4186 61 1 17.951467306735204 24.138333188555986 34.870072838956105 0 0 0
4173 28 1 9.77244046407258 18.084731846848666 31.111915121915143 0 0 1
2810 4 1 9.640499666510038 4.895256967509693 31.050850860913595 0 0 0
2811 4 1 10.773696999372744 5.795038539512064 31.40083373280174 0 0 0
2812 4 1 10.978803997542453 5.905115894296465 32.85824234942805 0 0 0
2813 4 1 12.295129256195954 6.642697723856183 33.15440922496276 0 0 0
3723 27 1 9.43293362043323 13.705836904522672 31.139830208572143 0 0 1
8952 14 1 3.4567256045391797 18.971458477496483 44.761714760890015 0 0 0
3508 24 1 16.831219846934943 18.423135452671684 38.36693181422448 0 0 0
4632 31 1 15.379919612928145 0.858138241271668 31.637791899852882 0 1 0
618 51 1 13.68204551839631 10.167655775507942 39.917455997621516 0 0 0
9247 64 1 0.8497459519456496 18.408034425390436 36.72681597224268 1 0 0
8867 61 1 3.802896329626428 15.876431121445439 40.35566636612302 0 0 0
3123 20 1 11.192103562978108 10.320823056208733 32.87278862353292 0 0 0
3124 20 1 12.5636413986502 10.657101849376717 33.30895144624349 0 0 0
3125 20 1 12.801889849646551 10.902696151224854 34.8587744603833 0 0 0
3126 20 1 14.000096152022994 11.793541850011698 35.07100760143966 0 0 0
3127 20 1 14.49541494410295 11.976177790556344 36.56327231354142 0 0 0
1517 10 1 18.15560040036157 18.198251665556683 46.089273381163316 0 0 0
9349 10 1 1.9054946283490253 22.638250861240504 42.0738369949038 0 0 0
620 51 1 15.521907466156566 10.034924395486827 41.66282829352418 0 0 0
9350 10 1 2.2475291870090155 23.204014226121252 43.44731824962655 0 0 0
3201 20 1 10.893152804721518 10.067432993477784 31.32929361135023 0 0 0
2586 19 1 17.661375249446355 6.7350766289423944 33.60945096835941 0 0 0
3949 25 1 14.593016041777371 17.465721716632412 31.534475149893733 0 0 1
9636 3 1 2.2047225164335083 23.925192946637925 37.38951644507936 0 0 0
7589 51 1 7.470540832987102 5.037849803460333 44.5404838672793 0 0 0
3505 24 1 14.144486096156237 16.47511576941743 36.433673216246554 0 0 0
3506 24 1 15.272497618667963 17.45005911779169 36.62057195447306 0 0 0
4413 30 1 15.258305120463103 25.689583273380663 36.5282367263497 0 0 0
8950 14 1 2.0944501415271515 18.171766966775177 43.03400083334218 0 0 0
1739 8 1 14.001337014555268 20.624138127327477 46.43452174131027 0 0 0
8875 61 1 9.57650801656438 18.69430602453595 47.32597604525262 0 0 0
4635 31 1 17.741329593738147 1.5494810500066032 34.5097660156012 0 1 0
1515 10 1 16.55908484894926 18.487780545728622 44.310657021883124 0 0 0
3727 24 1 12.579761404144234 15.249985457614066 34.781041679988185 0 0 0
3728 24 1 13.762780083533277 16.218215258327135 35.03414210047811 0 0 0
8576 41 1 3.087670872381431 14.67736953979558 45.023230545078555 0 0 0
9249 64 1 2.193526996409142 19.544697891667994 38.40860580296984 1 0 0
9256 64 1 8.001626381394937 23.158032376568652 43.5312808750826 0 0 0
4407 30 1 10.71616780452166 23.247926408877063 31.056193687567426 0 0 0
3953 42 1 12.964011301976992 19.889003219987146 34.59606714627439 0 0 0
3954 42 1 13.386092671279433 21.241469042166795 35.17792072432211 0 0 0
3955 42 1 14.439529936917198 20.927835220564113 36.146627834742276 0 0 0
3956 42 1 15.151373769135768 22.0880379477315 36.868068034400515 0 0 0
3957 42 1 15.865962929780258 21.743834036433462 38.09908326233008 0 0 0
7591 51 1 9.142891024101916 5.270254068783089 46.223379190263955 0 0 0
2817 4 1 15.51578849754054 8.120510619566922 36.665290893973705 0 0 0
8868 61 1 4.578102984085328 16.999651937332015 40.93432053751891 0 0 0
4175 42 1 11.40451751225733 18.8043555398184 32.86315548194155 0 0 0
4176 42 1 12.096019006019846 20.025537601373017 33.402041901664056 0 0 0
8872 61 1 8.081500493806578 18.87359740354786 43.886904789515896 0 0 0
1723 10 1 4.427526663189486 13.701059404631941 30.533776314894727 0 0 0
2818 4 1 15.906519053360068 8.458016397246654 38.05873902882226 0 0 0
2809 4 1 9.243641130505617 4.5938794191855985 29.600887856147192 0 0 0
3960 42 1 17.418931857991094 21.436339191810166 40.41613454779015 0 0 0
7811 34 1 4.713909654869999 6.496582256006766 46.67141964772318 0 0 0
1290 9 1 14.932193009400788 15.701383338735896 46.824856164032425 0 0 0
8870 61 1 6.519638826397596 17.78836500102202 42.23873568103673 0 0 0
8096 55 1 0.7854036597565457 5.11833587868832 35.63232335446326 0 0 0
624 51 1 18.42601634585372 9.670029526734098 45.77426847321035 0 0 0
9246 64 1 0.21297363261814986 18.587625842722066 35.37461428679089 1 0 0
8184 56 1 1.8926497223855725 9.272130507554028 42.27953101123154 0 0 0
8355 38 1 9.403115381662364 12.789197323767276 46.20158662283203 0 0 0
1945 8 1 0.7971181388858757 17.02313037535842 30.52588414952273 0 0 0
4631 31 1 14.146242109208337 0.01603689134824941 31.27402035731825 0 1 0
2041 14 1 16.60813924796874 23.339724155775357 44.28252824308547 0 0 0
8873 61 1 8.590182092164257 19.307498350735557 45.20381370381058 0 0 0
3132 20 1 18.36219456619839 11.53861257320066 40.29015618371906 0 0 0
9255 64 1 6.794652492694576 22.28721247046569 43.24295454593476 0 0 0
9254 64 1 6.476714840262715 22.321373135060583 41.78517352735828 0 0 0
3958 42 1 16.8564598333104 22.932931957296127 38.41273794128844 0 0 0
1049 15 1 1.0044376293360668 8.139102190016187 30.970173928802335 0 0 0
14 1 1 15.342578051536378 1.8099994763003902 47.13448355330494 0 0 0
8189 56 1 5.288895980574766 11.40560214217104 46.95417582051338 0 0 0
622 51 1 16.98078132970408 9.824300105763735 43.700352789795346 0 0 0
74 1 1 0.8932329997687333 25.767651490010902 30.541651239235858 0 -1 0
3724 27 1 10.616657831913832 14.526112981980354 31.531271968319864 0 0 1
844 15 1 14.996699132536378 10.701314792653438 47.168089428569516 0 0 0
2343 40 1 5.224217121748576 23.61377487329499 30.665240905795276 0 0 1
2432 11 1 16.127719188525 3.784554839766541 38.26097199013512 0 0 0
9640 3 1 5.318513566563789 26.06076272491355 40.84209605012412 0 0 0
1067 8 1 16.126327139023456 13.762226613468334 44.090645284899 0 0 0
2502 11 1 9.64475141444275 0.0386957979734027 30.733014781136077 0 0 0
2433 11 1 17.28306969736591 4.232198967808743 39.14649724081018 0 0 0
8871 61 1 6.966070782827807 17.877344708493283 43.72333696731531 0 0 0
2123 15 1 14.323829586061768 25.043566214349095 46.07016849980228 0 0 0
8577 41 1 4.478008872470291 15.263855714081306 45.18589426442806 0 0 0
3729 26 1 17.686990892247216 19.407190178941313 34.88407843675379 0 0 0
2420 16 1 7.449392586373129 24.62305790147789 33.76513538125021 0 0 0
8347 38 1 3.451109230790284 11.931656243723182 39.33357171099997 0 0 0
9251 64 1 3.736954258316595 20.633498023139612 39.968105485959626 0 0 0
4415 30 1 16.58753963933203 0.1391710529755118 38.299207865961506 0 1 0
8351 38 1 6.812316289852394 13.288328906798593 42.666232085837194 0 0 0
9248 64 1 1.724224501503883 19.563790336545576 36.92984182199669 1 0 0
8954 14 1 5.18676834357425 19.45145194827024 46.59041750982434 0 0 0
4416 30 1 16.758100685140732 25.969168076446987 39.49513738963681 0 0 0
2355 16 1 18.441276924426848 0.22080622899233562 45.824288367204296 0 1 0
8866 61 1 3.116918667734099 16.137824666276686 39.01929664014146 0 0 0
8863 61 1 0.5454404111151477 13.979081529268434 36.83821485558077 0 0 0
9253 64 1 5.4400203359456505 21.2953109497317 41.558905022530894 0 0 0
3507 24 1 15.579594802451318 17.678826078324995 38.05622658467618 0 0 0
3130 20 1 16.987234649980447 12.384644684118937 38.392480149796484 0 0 0
4184 61 1 16.71239594326011 22.874356770297297 33.27471421378107 0 0 0
8574 41 1 1.5100205416438142 14.020538073106431 43.32670529700487 0 0 0
7360 16 1 2.2848117184100483 1.8578005909016397 43.591954758612616 0 0 0
7361 16 1 3.2709813921704693 1.3560461364798855 44.65684519648662 0 0 0
7362 16 1 4.123515550708514 2.3656795807721784 45.407697062972 0 0 0
4174 42 1 10.948688719220197 18.84264743200515 31.418309508581423 0 0 0
8353 38 1 8.223938945277068 14.107101929346243 44.33772913690362 0 0 0
394 55 1 15.508931027031663 7.30105966924629 47.00308012569516 0 0 0
1946 8 1 1.0416762293429593 16.890129827584428 32.05092438642693 0 0 0
4410 30 1 12.354270360915331 24.68952712381586 34.198816593671495 0 0 0
4408 30 1 10.826817002415583 23.543142810088764 32.53615813489424 0 0 0
2352 16 1 16.176154317110942 0.6168341247310788 42.855244460286656 0 1 0
3288 23 1 17.811167100948538 14.78802501183905 34.29529156891752 0 0 0
3284 23 1 14.653761603697268 13.166308449060452 30.486816268549482 0 0 0
8949 14 1 1.265212894598112 18.46063167907864 41.84347586569589 0 0 0
8573 41 1 1.1007393606418878 13.988516114442943 41.87748753664663 0 0 0
7581 51 1 1.5326156791706 1.3444501882709485 37.22117719355103 0 0 0
7582 51 1 1.826147608258677 1.3859080330202085 38.74303489061886 0 0 0
7583 51 1 3.06812627439262 2.228156715981379 38.87316343515994 0 0 0
7584 51 1 3.719264044841003 2.4872125752784284 40.25091303642021 0 0 0
7585 51 1 4.712708268742888 3.561649679911149 40.36931586078363 0 0 0
7586 51 1 5.190707491796636 3.3784163129326013 41.85298893147045 0 0 0
7587 51 1 5.947037151036984 4.570326434006294 42.55502957239371 0 0 0
7588 51 1 6.457585781240947 4.12343022211973 43.91419631466404 0 0 0
2969 48 1 17.491351002045334 11.179329607153411 33.83542094938255 0 0 0
2345 40 1 6.696327849717827 24.59076813479185 32.53402016820672 0 0 1
1068 8 1 17.19549099151573 13.072371433850428 44.80841951168441 0 0 0
8869 61 1 5.501062729429628 16.683983471661275 42.04540814351094 0 0 0
5029 34 1 0.8878308846273271 3.2896878581491746 46.56837672671047 0 0 0
8349 38 1 5.072854116816343 12.66708831187672 40.99048619923806 0 0 0
4412 30 1 13.791778846549398 25.72680752692317 35.90442915888451 0 0 0
8108 55 1 10.054816748584372 9.440407456478479 46.638479877101105 0 0 0
13 1 1 14.429230849144695 2.7959950426485456 46.68102912730399 0 0 0
2816 4 1 13.998505813711445 7.856352642695081 36.34785356439086 0 0 0
7808 34 1 2.8685761803365066 6.111097623515001 43.48483530723985 0 0 0
7809 34 1 3.185988274296832 5.8966790967184854 44.92001464968597 0 0 0
2121 15 1 12.37993544643267 24.977094086736184 44.27642223777049 0 0 0
4630 31 1 13.630681613154412 0.11155779278682994 29.843534076590473 0 1 0
2819 4 1 17.158341579302654 7.781420554869885 38.55746546397442 0 0 0
3951 25 1 16.0096978583259 18.660443958138583 33.176346552061695 0 0 1
4414 30 1 15.226513983563104 0.007387617674591229 37.60361691179723 0 1 0
603 55 1 3.2650947466281757 3.6877583648651813 34.05605485579814 0 0 0
2584 19 1 15.961845996873691 5.919271941682394 31.741328020108128 0 0 0
9250 64 1 3.2186336814795347 20.52639588051883 38.57850548081288 0 0 0
8188 56 1 4.741069920310799 10.405108347993316 45.99943629918365 0 0 0
8098 55 1 2.2680834441610425 6.333095915832621 37.341065216672305 0 0 0
8099 55 1 2.74774364261347 6.134500432499093 38.78341520199701 0 0 0
8100 55 1 3.596977848448624 7.3927436005603235 39.0693449126502 0 0 0
8101 55 1 4.518006136009452 7.260573408574616 40.36364170622123 0 0 0
8102 55 1 5.01837006099183 8.506214830268846 40.96877033712957 0 0 0
8103 55 1 5.834333268161583 8.136795435539927 42.18002707787455 0 0 0