LAMMPS data file via write_data, version 23 Jun 2022, timestep = 1000000

9706 atoms
2 atom types
9690 bonds
3 bond types
9674 angles
3 angle types
9658 dihedrals
3 dihedral types

0 36.89775039 xlo xhi
0 26.67072 ylo yhi
0 236.7516044 zlo zhi
0 7.448720975 0 xy xz yz

Masses

1 14
2 15

Pair Coeffs # lj/cut/omp

1 0.0914 3.95
2 0.1947 3.75

Bond Coeffs # harmonic/omp

1 449.5 1.53
2 449.5 1.53
3 449.5 1.53

Angle Coeffs # harmonic/omp

1 62.0967 114
2 62.0967 114
3 62.0967 114

Dihedral Coeffs # opls/omp

1 1.411 -0.271 3.145 0
2 1.411 -0.271 3.145 0
3 1.411 -0.271 3.145 0

Atoms # molecular

1 3 1 4.678307286540107 0.9155800248500591 5.4929523840576175 0 0 0
2 3 1 4.782960895955209 1.5850425142616935 6.846461593786466 0 0 0
3 3 1 6.048653996722238 1.0713942797316132 7.588591887766211 0 0 0
4 3 1 6.186547457087436 1.731024890606242 8.952233704155113 0 0 0
5 3 1 7.5574627068300435 1.5580642079959033 9.719555823930003 0 0 0
6 3 1 7.420739353434284 1.817855698294341 11.215919088028242 0 0 0
7 3 1 8.763448401696444 1.5325224891599554 11.928686617087628 0 0 0
8 3 1 8.845177943547244 1.978802422063768 13.416038646887804 0 0 0
9 3 1 10.156054073557018 1.5401588691864283 14.154533663658908 0 0 0
10 3 1 10.072430368038736 2.0462686929510467 15.58640574516515 0 0 0
11 3 1 11.388444497417526 1.597596058883877 16.26764575608294 0 0 0
12 3 1 11.244347523124954 1.443401629396916 17.778756798907917 0 0 0
13 3 1 12.523687260962298 1.7042649384493782 18.559257046258335 0 0 0
8796 59 1 2.8069881748632306 17.50907041503848 9.406596254215744 0 0 0
2874 1 1 18.52012466053298 4.293782402039847 3.6681117146193833 0 0 1
2650 47 1 13.384536283992913 1.6569200354097928 5.091196272876236 0 0 0
1673 11 1 13.375620115410472 19.156974840461025 22.42596262988359 0 0 0
1048 52 1 2.748008345050484 10.348189379116945 0.9005157698848654 0 0 0
3323 13 1 15.783381449839592 8.451163741877986 1.0619565644438955 0 0 0
9315 3 1 0.4048198206503972 21.221722095442523 5.123201813635983 1 0 0
222 3 1 2.565558161592414 1.5416318568966336 2.409905784622779 0 0 0
223 3 1 3.8161407339289037 1.2118905340661457 3.1832989118119515 0 0 0
224 3 1 3.5111406286489317 1.4654984191081817 4.631422918174499 0 0 0
304 59 1 8.830610899103615 3.9518325410111954 3.4334720735322373 0 0 0
305 59 1 8.94317807396009 3.8640787379047254 4.963514050676999 0 0 0
306 59 1 10.38412060166289 3.8111234387351267 5.4985389374052795 0 0 0
307 59 1 10.378761453658017 4.209408843393372 6.975615811528822 0 0 0
308 59 1 11.697915151927461 4.277089700887374 7.82103593741503 0 0 0
309 59 1 11.452252461324331 4.057888951295263 9.310158220757103 0 0 0
310 59 1 12.63578408897326 4.032906334409633 10.267059673856556 0 0 0
311 59 1 12.500533862391208 4.008421157461441 11.823809019360413 0 0 0
312 59 1 13.813873265692328 4.104099449024438 12.556618741154587 0 0 0
313 59 1 13.583379029518975 3.652653897350351 13.946842629643955 0 0 0
314 59 1 14.908250234518139 3.698198788875206 14.807040058913897 0 0 0
1656 56 1 8.87720133370283 18.198669454939726 4.565196063554119 0 0 0
9034 61 1 5.492442595846231 19.530848721013193 22.755694195665264 0 0 0
3101 13 1 17.195366431526413 8.649069777815466 3.2910233451761686 0 0 0
380 59 1 6.212868594750801 3.8879591573791603 0.4982323031684657 0 0 0
8137 53 1 3.845147644792926 9.960272814943163 20.178401838055986 0 0 0
3334 21 1 17.90620074427084 11.227039887204397 12.945321479852396 0 0 0
382 59 1 7.505209928375476 3.631700306136235 2.7411638133290817 0 0 0
383 4 1 6.079170383568709 5.888571892163937 7.612507604601936 0 0 0
384 4 1 5.954018787606437 5.998403716047029 9.108312649994 0 0 0
385 4 1 7.297562794114086 5.838750427890082 9.819602644547308 0 0 0
386 4 1 7.302154825690955 6.2527179852098715 11.281585151617742 0 0 0
387 4 1 8.614693337259837 5.848463379064374 12.029613914769742 0 0 0
388 4 1 8.510912302873956 6.171782411690821 13.510638296163195 0 0 0
389 4 1 9.909394334987045 6.0708915815869675 14.144468275016514 0 0 0
390 4 1 9.804465442204334 6.157778780293027 15.662611369668465 0 0 0
391 4 1 11.11930542354948 5.956445027656237 16.449428349548025 0 0 0
392 4 1 10.983493590158446 6.003455794813895 18.007630377627937 0 0 0
393 4 1 12.397833254869028 5.8991981723578935 18.646544997458605 0 0 0
394 4 1 12.274152260584758 5.818450484227921 20.11382550140794 0 0 0
3932 26 1 18.293792629197313 17.939384455728305 3.7561268327370105 0 0 0
1963 23 1 6.46808027509708 21.838561817782768 0.02773893391950245 0 0 1
1579 45 1 7.873365460767686 17.777117054162492 0.9123254759068072 0 0 1
8585 30 1 5.036328854674289 14.69056005057992 22.2539037624169 0 0 0
9403 12 1 1.4115160002974303 23.804494318472457 15.95805526489403 0 0 0
2038 50 1 7.8725478076822 21.55251946248894 0.6278271283569613 0 0 0
602 4 1 2.848939780889212 6.414986082212357 2.2454992004205794 0 0 0
603 4 1 3.7546669765480627 5.615636389298217 3.191479963534252 0 0 0
604 4 1 3.8686148623012504 6.306004306434016 4.539847972212544 0 0 0
605 4 1 5.078473338555171 5.758301982336939 5.348803629616907 0 0 0
606 4 1 4.775908718824091 5.920013700688734 6.858211108268414 0 0 0
607 6 1 8.676172039062834 8.52473026710227 4.689988741585234 0 0 0
608 6 1 9.896781618585488 8.881079642100469 5.586760393130727 0 0 0
609 6 1 9.746016017052037 8.562787930504184 7.057222533595586 0 0 0
610 6 1 11.082708910657917 8.479762509282954 7.827210498566032 0 0 0
611 6 1 10.925859149949414 8.197431504871783 9.304598543940827 0 0 0
612 6 1 12.198588535605658 8.303518850527418 10.241135562711698 0 0 0
613 6 1 12.097388968297084 8.245303453788447 11.733993682437626 0 0 0
614 6 1 13.398984004938516 7.984649799809512 12.506366281047033 0 0 0
615 6 1 13.241210941913598 8.391268329506552 13.955350644738628 0 0 0
616 6 1 14.51985907125551 8.061934331901897 14.764194710880775 0 0 0
617 6 1 14.36640161390098 8.51570172864006 16.22488592258583 0 0 0
1657 56 1 10.073855104477216 18.129294157114327 5.473389564053123 0 0 0
2649 47 1 13.605375426371326 1.9833746477593102 3.6351577441957383 0 0 0
2203 14 1 3.825090192221805 23.797652913085074 4.684971805841823 0 0 1
1878 11 1 2.592917762396695 19.867228867496816 0.38199658892678395 0 0 0
8041 53 1 0.29416109761043946 8.42872497379239 6.553474733409258 0 0 0
829 6 1 7.303545910268828 8.232337773125385 2.536111636219736 0 0 0
830 6 1 8.587781049241878 8.793814861641051 3.1674561417032625 0 0 0
831 52 1 6.735126578589329 11.45607415857017 8.926163493542585 0 0 0
832 52 1 7.9046140755987855 10.93150977115252 9.737222530022514 0 0 0
833 52 1 7.788826833305389 11.269674483681948 11.226323953712642 0 0 0
834 52 1 8.908087881940492 10.5496589435847 12.016866065475831 0 0 0
835 52 1 8.697903957909036 10.820947863284701 13.510958067024141 0 0 0
836 52 1 9.674913883754659 10.229664967213553 14.436502716663613 0 0 0
837 52 1 9.796330530677778 10.918584967608547 15.835236440198093 0 0 0
838 52 1 10.94911983197172 10.265272077768335 16.59729327453326 0 0 0
839 52 1 11.06637209974678 10.716295035421778 18.020910433976884 0 0 0
840 52 1 12.234180699341648 10.16646628332396 18.812238998600346 0 0 0
841 52 1 12.36426747107286 10.975516808800005 20.14985040977096 0 0 0
842 52 1 13.32584667709139 10.36045688092664 21.22364479255528 0 0 0
843 52 1 13.352103301047933 10.97838643526746 22.62086925234582 0 0 0
4761 33 1 18.329965982578795 0.09069285410455777 3.7397255738779474 0 1 0
1499 11 1 4.1298979485523954 15.291669434819376 2.748991439548339 0 0 0
2202 14 1 3.9795549133710364 23.687377688463986 3.2008941605255905 0 0 1
3929 25 1 12.297502771943654 14.932420573385212 2.666437269773093 0 0 0
1049 52 1 3.0473495167292963 11.206038486636729 2.161705062066494 0 0 0
1050 52 1 4.024030399641237 10.485664530786165 3.1222248869091382 0 0 0
1051 52 1 4.3451877635094185 11.358044043442149 4.351501804422396 0 0 0
1052 52 1 5.193727468600582 10.597203724743006 5.335729102058329 0 0 0
1053 52 1 5.354778371374781 11.278520480510194 6.745417009940105 0 0 0
1054 52 1 6.529493168350684 10.738832761113612 7.609897643495039 0 0 0
1055 60 1 11.140388491007307 13.30066822616539 8.099429290549729 0 0 0
1056 60 1 11.985725240290272 12.436782292004336 8.991958715908073 0 0 0
1057 60 1 12.132998435936466 13.083171075049082 10.34247481733672 0 0 0
1058 60 1 12.977137567785139 12.444162450259673 11.42289390271449 0 0 0
1059 60 1 13.124666237255303 13.119014548131396 12.814424897472867 0 0 0
1060 60 1 14.094461312147008 12.480717609677843 13.78128067939963 0 0 0
1061 60 1 14.073986990438202 13.0123446740107 15.193643553990949 0 0 0
1062 60 1 15.139743944729567 12.31017875403477 16.08453573587401 0 0 0
1063 60 1 15.200817900097922 13.053882741961218 17.400427363236805 0 0 0
1064 60 1 16.114114620020985 12.230767267234285 18.306815317847775 0 0 0
1065 60 1 16.374244391116413 12.935536966935949 19.646344211856782 0 0 0
9331 3 1 9.996924091390431 21.460357052060953 23.36726944381008 0 0 0
9408 12 1 4.43061782382477 24.492649952301328 21.630106645487206 0 0 0
395 4 1 13.427492574333156 6.293265831265276 21.0040680404352 0 0 0
1275 60 1 8.61013908486881 13.557836562788735 3.6934852456568685 0 0 0
1276 60 1 9.544164737055496 12.786428587092962 4.592655912537911 0 0 0
1277 60 1 9.891610530371668 13.43948113697427 5.9501412078903995 0 0 0
1278 60 1 10.871872422644826 12.690191926272552 6.772118717105978 0 0 0
1279 11 1 6.384417535236089 15.356432885653955 7.307487401781834 0 0 0
1280 11 1 6.3128627248625495 15.154230329059311 8.797005082649521 0 0 0
1281 11 1 7.660228706351859 15.350394924383368 9.458146630152 0 0 0
1282 11 1 7.57617680345094 14.822380640305292 10.922604652182393 0 0 0
1283 11 1 8.731540580218642 15.284376855052992 11.786077236634139 0 0 0
1284 11 1 8.66436524674823 14.885365613363474 13.230942203428079 0 0 0
1285 11 1 9.861524265266032 15.466983073621119 14.078979342605532 0 0 0
1286 11 1 9.882833765347186 14.893930067377525 15.523715506031177 0 0 0
1287 11 1 11.084531495564068 15.155384227030893 16.31878609102697 0 0 0
1288 11 1 11.02360951098889 14.865644456433195 17.78424492447388 0 0 0
1289 11 1 12.300315436471232 15.234193089854308 18.56053287682613 0 0 0
1290 11 1 12.088870679164462 15.058098567812594 20.074637931193287 0 0 0
1291 11 1 13.306030809448318 15.386203464574857 20.89169974826726 0 0 0
1580 45 1 7.79771092065769 17.931554065366466 2.393226309905759 0 0 1
8794 59 1 1.6622267451728987 17.366858923951195 7.118232476454661 1 0 0
1273 8 1 7.344578820623353 13.310083264159456 1.5126292361713232 0 0 1
9407 12 1 3.8830810169725853 23.60787396014476 20.51632786804362 0 0 0
15 3 1 13.393869028005865 1.5634291430496192 20.885250245559263 0 0 0
318 59 1 17.41660342098836 3.7812826530926182 19.176457762262537 0 0 0
3715 25 1 18.113314962395435 15.388846576632494 13.745493494892097 0 0 0
1500 11 1 3.9261436314076135 15.604947096207102 4.202151469943133 0 0 0
1501 11 1 5.098795575069527 15.061966164185078 5.030904799666738 0 0 0
1502 11 1 5.025665881787132 15.464662862335626 6.4962043827345655 0 0 0
1582 56 1 12.209365322215973 17.75127629944899 9.992256442155734 0 0 0
1583 56 1 12.068489735650362 17.48201278356884 11.517329663116211 0 0 0
1584 56 1 13.258934731117414 17.75474550351922 12.42147333956788 0 0 0
1585 56 1 13.19073582504928 17.231965237728463 13.82396975624235 0 0 0
1586 56 1 14.44938444168077 17.38242246823613 14.566499110579583 0 0 0
1587 56 1 14.439464227336316 16.992926651479472 16.049124915436252 0 0 0
1588 56 1 15.789380174876639 16.997313104116536 16.77819657806515 0 0 0
1589 56 1 15.683192955209583 16.683196799404705 18.2435936022215 0 0 0
1590 56 1 16.75992384541765 17.406722795081244 19.075294303076788 0 0 0
1591 56 1 17.067266688274017 16.870980221549154 20.45081982789998 0 0 0
4160 29 1 18.21497715692682 19.799473494841052 12.363469087075138 0 0 0
9406 12 1 3.1210039656186486 24.38621914564174 19.470026331863522 0 0 0
9639 64 1 3.9104446370760053 25.77679984086048 12.000044257822756 0 0 0
9647 64 1 8.965439205086117 25.903643997339827 20.803390832834584 0 0 0
2651 47 1 14.666295591617866 1.7048775512901277 5.850403365290425 0 0 0
1658 56 1 9.751516953988835 17.892631991215524 6.984684275335226 0 0 0
1659 56 1 11.021653285092691 17.93529620212081 7.806771001892646 0 0 0
1660 56 1 10.832535474184604 17.71751274667975 9.252461516034083 0 0 0
1661 11 1 6.3576853630215 19.478177505268256 8.713830217741847 0 0 0
1662 11 1 7.709598177855802 19.348707261758328 9.468727669841579 0 0 0
1663 11 1 7.520438510146658 19.128789090286038 11.009406736707403 0 0 0
1664 11 1 8.768145746532523 19.569321734041953 11.80984704071727 0 0 0
1665 11 1 8.49953141043346 19.630555743661944 13.311169670593667 0 0 0
1666 11 1 9.733534503397086 19.907337623511882 14.175525537167907 0 0 0
1667 11 1 9.783110798194667 19.380559255129615 15.593336868280101 0 0 0
1668 11 1 10.907790310386256 19.967124538587438 16.427211934291357 0 0 0
1669 11 1 11.163530969998524 19.172613028551783 17.75784586600567 0 0 0
1670 11 1 12.265893757507303 19.701454135601914 18.66855090337275 0 0 0
1671 11 1 12.127467613019649 19.29191549765403 20.14323491149927 0 0 0
1672 11 1 13.27316105254419 19.760881117832753 21.04554499829869 0 0 0
1880 11 1 3.800789098327775 19.71008618958561 2.6231436044453162 0 0 0
1497 11 1 2.8912274222410805 14.851798164820785 0.4628649596499823 0 0 0
619 6 1 15.63658042575913 8.14635678534286 18.5765110863284 0 0 0
3931 26 1 17.19990620423921 17.38039704631084 2.84248043238033 0 0 0
3548 22 1 15.993835525593221 12.88518435948419 0.6217917247194129 0 0 0
2434 47 1 18.53448783633767 1.7190730113624948 13.73952729370992 0 0 0
3714 25 1 18.18314455305413 15.826396804073566 12.2880666926944 0 0 0
1881 11 1 3.747078121498193 19.528784960266552 4.160532285511627 0 0 0
1882 11 1 5.03840899101351 19.691975830887532 4.960570397059511 0 0 0
1883 11 1 4.92176470634176 19.42711512419137 6.4868345425922795 0 0 0
1884 11 1 6.301322668517345 19.5938919923752 7.188599787777352 0 0 0
1964 50 1 10.033048233309726 22.527568439496143 6.688761602097356 0 0 0
1965 50 1 11.394259182735574 22.422081063383324 7.341982691401778 0 0 0
1966 50 1 11.166062230619737 22.083694028770413 8.890100318970696 0 0 0
1967 50 1 12.393469818734038 22.399997620800125 9.722470158211586 0 0 0
1968 50 1 12.208562649136539 22.147560857698267 11.228957648892983 0 0 0
1969 50 1 13.487022695099569 22.259918893331292 12.05006836277229 0 0 0
1970 50 1 13.466902056275925 21.65357842384192 13.439702428495888 0 0 0
1971 50 1 14.678917445852509 21.899701732203287 14.322581174156081 0 0 0
1972 50 1 14.607613221668252 21.331114671776575 15.75083739398169 0 0 0
1973 50 1 15.978921040469222 21.239218097207104 16.504312837823356 0 0 0
1974 50 1 15.785463674239677 21.173500548713776 18.067635310518334 0 0 0
17 3 1 14.404937261232165 1.4347132373704896 23.10098675228612 0 0 0
3551 22 1 17.904466846283228 13.646456742222545 4.032762568899754 0 0 0
4374 28 1 12.482009292088836 20.082900943441782 0.8000336016252668 0 0 1
3098 17 1 12.158704244085412 6.224292175864609 1.2818537585266077 0 0 0
2040 50 1 9.11646869739719 21.94881685246363 2.860778456766716 0 0 0
2041 50 1 8.831932439264135 22.30610868900392 4.33206664269893 0 0 0
2042 50 1 10.101757488997645 22.28300832635173 5.185368493207412 0 0 0
2043 13 1 8.857216505171133 24.1721411300261 13.497554363203328 0 0 0
2044 13 1 10.14224871878477 24.188442420785606 14.273554575082487 0 0 0
2045 13 1 10.030607161182726 23.80768718747897 15.705336905586218 0 0 0
2046 13 1 11.264195781960641 23.982390981777694 16.559122824016466 0 0 0
2047 13 1 11.035578283837404 23.77102689874621 18.078213755569184 0 0 0
2048 13 1 12.353402307739488 23.85781945726006 18.782394075105376 0 0 0
2049 13 1 12.30553690164007 23.870659540286546 20.338184481696292 0 0 0
2050 13 1 13.634631800943751 24.019513650742297 21.07761824811032 0 0 0
2051 13 1 13.507527518072626 23.553900519221283 22.495779517401612 0 0 0
3099 17 1 12.09912074735714 6.483424156962547 2.7731781347391116 0 0 0
8139 53 1 5.109727226016858 10.046858180073434 22.432298744317198 0 0 0
3547 21 1 11.15520337337475 10.16293683270153 0.3310316152383231 0 0 0
317 59 1 16.076427300240695 3.6369558602179013 18.53010085519688 0 0 0
1292 11 1 13.279908915895966 14.950019012973387 22.350864758637904 0 0 0
381 59 1 7.517131529124347 3.9767223386796977 1.2754522782685114 0 0 0
2425 55 1 7.878572468241968 0.04460841954488445 2.5998956848287196 0 1 0
618 6 1 15.65994535139259 8.241801770056156 17.047435818450783 0 0 0
2116 13 1 4.982391791899446 23.52651939070884 6.981835790578369 0 0 0
2117 13 1 6.318955701920208 23.77422494835439 7.665397418577199 0 0 0
2118 13 1 6.267493411719318 24.071392509292696 9.119819086131962 0 0 0
2119 13 1 7.64138463078369 24.314527831890512 9.68782511285286 0 0 0
2120 13 1 7.618600711257497 24.15645833543543 11.213749833829256 0 0 0
2121 13 1 8.937278702946147 24.42978239541438 11.991570490435976 0 0 0
2204 55 1 10.185945923870065 26.295695687811556 5.686908174060289 0 0 0
2205 55 1 10.103197407796449 0.11490529750862398 7.14400028519652 0 1 0
2206 55 1 11.336285503533242 26.413408846134214 7.879464832093794 0 0 0
2207 55 1 11.116708433950345 0.13233133385507484 9.37311360212845 0 1 0
2208 55 1 12.362082395690553 26.527075538953664 10.19509452359972 0 0 0
2209 55 1 12.264734799285446 26.656688491759397 11.713471458580223 0 0 0
2210 55 1 13.584713915239158 26.228174615051984 12.376245422650014 0 0 0
2211 55 1 13.49834967231519 26.127792803409253 13.876960751374328 0 0 0
2212 55 1 14.853384654266614 25.784120346757934 14.46320490258446 0 0 0
2213 55 1 14.993090070195985 26.068403508023373 15.958631737606561 0 0 0
2214 55 1 16.25888852067969 25.67030840208592 16.709566361456517 0 0 0
4378 30 1 17.15662588649007 22.645002536998394 1.3018307082585543 0 0 0
9029 61 1 1.9640681453651054 19.05769848952394 17.275024881634415 0 0 0
321 59 1 18.513035339208688 4.151926339146013 22.908850727712103 0 0 0
3100 13 1 16.930621035778703 9.081052766604992 1.825082446056663 0 0 0
2873 1 1 17.20273777665829 4.0390521976160105 2.9068772642658423 0 0 1
2426 55 1 8.872239899408852 25.988087555202835 3.48685633559865 0 0 0
2427 55 1 9.0744066739646 0.12079148325718052 4.802462228696274 0 1 0
2428 47 1 14.61004234679559 1.7111603231136823 7.370757079032618 0 0 0
2429 47 1 16.033497042589865 1.5176283772894164 7.945387868811198 0 0 0
2430 47 1 15.981641443651256 1.3628648042926248 9.434791441938652 0 0 0
2431 47 1 17.28466878017937 1.8868467456787426 10.054470083279094 0 0 0
1578 45 1 6.49904996486294 17.887724027158818 0.17277470149484123 0 0 1
4760 33 1 16.917359995347244 0.09174741869211811 3.1291103184208473 0 1 0
9324 3 1 5.40276717825369 21.823107759660186 15.653022384210008 0 0 0
3930 26 1 17.0124504143818 18.12537103624104 1.5089239483531736 0 0 0
1879 11 1 2.4461132792470672 19.71513963495308 1.9190582699612688 0 0 0
2432 47 1 17.264171328183366 2.116295642079329 11.548695575284984 0 0 0
1581 45 1 9.088379208898639 18.181708169757375 3.0590099678494203 0 0 1
3329 21 1 14.879278540182074 10.432027541948148 7.169315462990299 0 0 0
1978 50 1 18.099538712725515 21.52083495839483 22.62273661064148 0 0 0
397 4 1 14.429894813315753 6.30273159722665 23.291090184597323 0 0 0
2876 17 1 13.331644566976761 6.029086476044965 3.5641473610378838 0 0 0
2877 17 1 13.38139974479597 6.428709230537736 5.022685486760024 0 0 0
2878 17 1 14.737998147892268 6.132611618090863 5.678004820200215 0 0 0
2879 17 1 14.859431623199646 6.443430783412353 7.207419045454145 0 0 0
2880 17 1 16.05135548422479 5.823513157842103 7.967989041859113 0 0 0
2881 17 1 16.087657878428946 6.354844913964311 9.4282489488836 0 0 0
4543 32 1 16.07500193132755 24.418453346237957 9.024874802387949 0 0 0
4547 32 1 18.31342217758905 24.08819481926893 13.587849672772885 0 0 0
8793 59 1 0.6324213165685738 16.814167501707164 6.116128279412461 1 0 0
7735 52 1 10.093197993860759 3.6314879193538365 23.017521347978835 0 0 0
4759 32 1 10.885461094641542 24.506591812696865 0.26366898187067833 0 0 0
8580 30 1 1.3647622260977323 14.48465355747311 17.00284910179934 0 0 0
9649 64 1 9.82301103145199 26.20300096075213 23.125836662361806 0 0 0
623 6 1 18.204692834486714 7.789907184676575 22.917492076505912 0 0 0
3324 21 1 11.884902418298916 10.98897505897016 1.3795395198350826 0 0 0
3325 21 1 12.19454555632796 10.301850138456587 2.6887119958777896 0 0 0
3326 21 1 13.069372528921997 11.104424547302143 3.5816432561844076 0 0 0
3327 21 1 13.467051477647402 10.401051256028772 4.862523015582082 0 0 0
3328 21 1 14.197424423336683 11.224242613106249 5.980702442049387 0 0 0
620 6 1 16.972802631376737 7.904908562368944 19.23505540855266 0 0 0
8367 54 1 8.292167270145201 12.458752870132425 19.8906886974481 0 0 0
8133 53 1 1.7448125767721292 10.01015851892386 15.545464591987583 0 0 0
2871 1 1 15.959586201979711 4.07559395597924 0.745004653210364 0 0 1
3928 25 1 12.114358015438103 15.51823001305493 1.2838522314382765 0 0 0
9027 61 1 0.9197138124727415 18.992664015270446 14.839383093780977 0 0 0
9323 3 1 5.1329653050661115 21.299286654813137 14.24037724149834 0 0 0
9637 64 1 2.4690086756995044 25.5119371417089 9.887494146667372 0 0 0
9032 61 1 4.241970361712567 19.665532462330013 20.555633751256888 0 0 0
3706 25 1 13.005604119243616 15.91902524431302 3.590208436001446 0 0 0
3707 25 1 13.328169523612099 15.155713791062164 4.86677329825485 0 0 0
3708 25 1 13.993193952676064 15.923184615802263 6.026271601297163 0 0 0
3709 25 1 14.109170934554154 15.229185051539341 7.3456660662158075 0 0 0
3710 25 1 15.416736834492163 15.714757798934865 8.026093023899405 0 0 0
3711 25 1 15.60883126814325 15.176962106614836 9.471798702490595 0 0 0
315 59 1 14.770432206622063 3.536265709805719 16.258550301779298 0 0 0
1975 50 1 17.069386146613738 21.16466660812555 18.847779950166792 0 0 0
4536 32 1 12.25171405493575 24.36854505969386 1.0043423027023357 0 0 0
4153 26 1 15.795572487236898 17.580494332073567 0.7355568704513225 0 0 0
1067 60 1 17.87871402994934 12.902959939194835 21.827944242254294 0 0 0
3550 22 1 17.151917963041893 12.821495720582913 2.941648098554664 0 0 0
9638 64 1 2.774046028013461 26.3153360768899 11.092082204219226 0 0 0
9405 12 1 2.484957404739481 23.651746303434752 18.33881935355613 0 0 0
4154 29 1 14.992418958411838 20.320978231146952 5.369470382961149 0 0 0
4155 29 1 14.945289862176317 19.574232428378544 6.787875585681819 0 0 0
4156 29 1 16.083197963846793 19.998594706061457 7.685474852108283 0 0 0
4157 29 1 15.902535036228413 19.591264118158886 9.13644233939994 0 0 0
4158 29 1 17.092776845065874 19.970364952205937 10.026401783804221 0 0 0
2883 17 1 17.40652302551338 6.4957851553840555 11.616171814290333 0 0 0
8366 54 1 6.936793374948125 12.225083584245677 19.26428400516985 0 0 0
9329 3 1 9.043654196108701 21.447038930646737 21.024555886050255 0 0 0
9409 12 1 5.151789055847938 23.69933181414645 22.706622616405568 0 0 0
4377 29 1 13.92489315945893 19.864176220167636 4.309809566120753 0 0 0
2882 17 1 17.248344414076612 5.761129737445765 10.254289985289434 0 0 0
9318 3 1 1.7608503685876633 22.11709052026109 8.714590921970604 0 0 0
9636 64 1 1.6501893861787247 26.23749594415176 8.852374057309872 0 0 0
3712 25 1 17.000505749237078 15.241120287926892 10.018672189318382 0 0 0
1272 8 1 6.888773870567826 12.391970011420426 0.3598760160189477 0 0 1
4537 32 1 12.143080599473324 24.616189356813873 2.4797246340134187 0 0 0
4538 32 1 13.427116418301072 24.206701969076594 3.1932779379464775 0 0 0
4539 32 1 13.495395026308271 24.169304759791554 4.690421336187069 0 0 0
4540 32 1 14.90048423284959 24.064492731564137 5.317052683452294 0 0 0
4541 32 1 14.882541165710263 24.545702696834187 6.752734715025285 0 0 0
1976 50 1 16.908480543987338 21.44913654856604 20.352646799981002 0 0 0
9327 3 1 7.969546932845878 21.36281493282106 18.66969549245908 0 0 0
7723 52 1 2.7755135645458524 3.7191234830264106 9.504671957558182 0 0 0
8054 53 1 9.024178508420597 8.779844896609992 20.935107590602627 0 0 0
4545 32 1 17.164852249215752 24.247070307347613 11.3161755238684 0 0 0
8584 30 1 3.638350326789897 14.612493759618934 21.602912017713482 0 0 0
4456 30 1 16.263697017552644 21.852391331132168 0.3013526286451298 0 0 0
2039 50 1 7.7934142311712975 22.015447265633224 2.0673615889403614 0 0 0
3332 21 1 16.694313905636392 11.120593617143351 10.62130731668975 0 0 0
7494 64 1 1.2409683290614937 1.5248149995063816 16.26468234311647 0 0 0
4838 33 1 16.984750690504836 0.21794953562927719 1.6007339008936647 0 1 0
9031 61 1 3.264277762136722 19.052935939177903 19.5544708233015 0 0 0
9322 3 1 4.074111687821705 21.988911228354972 13.397060753311015 0 0 0
621 6 1 16.93455486734335 7.58189900832515 20.7149580280891 0 0 0
3713 25 1 16.99939606452952 15.23628990790718 11.562756484738339 0 0 0
396 4 1 13.359483810364413 5.72916032875237 22.406902705980233 0 0 0
2648 15 1 12.339085110106804 1.6293159284400498 2.87289928224325 0 0 1
4159 29 1 16.9171055141672 19.671684512499493 11.553438041666405 0 0 0
3330 21 1 15.671311862107322 11.129379504815313 8.254925593411462 0 0 0
4917 41 1 15.583624414599258 0.09029126984442024 0.8882878270492479 0 1 1
4376 29 1 13.725162665942353 20.458393151835843 2.8666265889463105 0 0 0
7499 64 1 3.979719176602246 2.0206544616665987 22.020686786413254 0 0 0
221 3 1 2.641890122972984 1.2228334118364785 0.8970653776655902 0 0 0
1498 11 1 2.8161885023127184 15.354224534892417 1.853008355432047 0 0 0
9640 64 1 3.8761642028894947 26.39398193274361 13.36046449621136 0 0 0
2875 32 1 18.433306137507323 4.077631666547112 5.216961300381494 0 0 0
2216 55 1 17.580588643448948 25.90959508508627 19.006943372901954 0 0 0
2215 55 1 16.299362891034697 26.123751852638296 18.158998244412096 0 0 0
7719 52 1 0.3630097705966936 4.380045438667898 5.0040896731961 1 0 0
9321 3 1 3.9742990011322523 21.426205990978048 11.94452810067561 0 0 0
8797 59 1 2.9190673480937783 16.844119582751333 10.768061176577216 0 0 0
4546 32 1 18.44996357807329 24.110979888358727 12.073573774856385 0 0 0
9646 64 1 7.622415723751717 26.020409752327488 20.064765602323188 0 0 0
9326 3 1 6.826534592658929 21.899917639092585 17.803086424278245 0 0 0
9404 12 1 1.8619502650599649 24.525973274907475 17.25841249283812 0 0 0
2115 13 1 5.081477719477863 23.43777968186533 5.48255868069344 0 0 0
3335 21 1 18.11426900262455 10.578391071897041 14.274960699944307 0 0 0
9645 64 1 7.620282730051608 25.706832947145045 18.544113146999457 0 0 0
9635 64 1 1.5697328729513025 25.652242579319037 7.431831073269615 0 0 0
1066 60 1 17.46273727978321 12.207032117862573 20.553162022880834 0 0 0
16 3 1 13.133961640325705 1.1570264969581423 22.31044032202815 0 0 0
8055 53 1 8.935656619935889 8.577478288916492 22.474614162655193 0 0 0
4542 32 1 16.213188731524987 24.399895289812395 7.471720720263026 0 0 0
2433 47 1 18.586271895892647 2.2316138804289225 12.321884192300235 0 0 0
7495 64 1 1.2717176335303835 1.7629831890513732 17.764532933070768 0 0 0
7496 64 1 2.6207628885455256 1.5616993793316745 18.38510712782189 0 0 0
7497 64 1 2.6481015296508374 1.7418393147332243 19.870777002712007 0 0 0
7498 64 1 4.066214726227063 1.7224069527504833 20.514854791605188 0 0 0
8056 53 1 10.362453989762017 8.516811037910418 23.191533677966905 0 0 0
8042 53 1 1.6170799868060226 8.589802058198648 7.428721782747662 0 0 0
9328 3 1 8.030346410903478 22.074260848863258 20.041888094806932 0 0 0
3549 22 1 16.67183049750847 13.621022721410087 1.7442300751559139 0 0 0
4379 30 1 17.508605018750576 22.017926870873097 2.6322574711900755 0 0 0
7722 52 1 1.644604134343678 4.53646861410992 8.762777873364417 0 0 0
7500 64 1 5.314457037786967 1.8739153798424952 22.771682217716265 0 0 0
7724 52 1 2.618767035011903 3.8765460389187982 11.009298762688642 0 0 0
7725 52 1 3.9237595168879498 3.466472764821005 11.776896036626637 0 0 0
7726 52 1 3.9617556562665217 3.9645050356273477 13.220663929127928 0 0 0
7727 52 1 5.181214882809373 3.6092007230652037 14.040911752211661 0 0 0
7728 52 1 5.061985765877019 4.259685222677937 15.426194414563271 0 0 0
7729 52 1 6.30562240817484 3.8211860401004074 16.20495828200663 0 0 0
7730 52 1 6.304592020176587 4.263985610002523 17.704361074627386 0 0 0
7731 52 1 7.546866188682044 3.8305183578890283 18.473036702513063 0 0 0
7732 52 1 7.500139539177384 4.162521312599692 20.015515667351007 0 0 0
7733 52 1 8.757126914263562 3.6089190137787166 20.753240679525096 0 0 0
7734 52 1 8.793192964873512 3.8812832160438826 22.26148203470451 0 0 0
2200 14 1 2.811623927194496 23.71877392115144 0.8749202915412623 0 0 1
3331 21 1 16.03952127488244 10.312547337818895 9.534744812874651 0 0 0
3103 13 1 18.192325044617185 8.957782912805378 5.547616719126462 0 0 0
9644 64 1 6.316824872401055 26.08959089452647 17.775210673265416 0 0 0
9320 3 1 3.00881608435457 22.15403264976687 10.970119598531863 0 0 0
9402 12 1 0.7705966472165194 24.581134606453166 14.824048911052097 0 0 0
8365 54 1 6.8702180518162015 12.867756277589853 17.909271777136993 0 0 0
9641 64 1 4.928410135345464 25.62648428606638 14.217580740555015 0 0 0
9317 3 1 1.6477661392675516 21.366809886448053 7.3705610529433585 0 0 0
316 59 1 16.109256004211755 3.6459718927866067 16.990679306830895 0 0 0
7813 46 1 1.4672438167207003 6.390794825660856 17.40429680047846 0 0 0
7814 46 1 2.6672307949148135 6.019861236925314 18.284468494594396 0 0 0
7815 46 1 2.4553423556383582 6.242406475154747 19.786920551019126 0 0 0
7816 46 1 3.722529521956757 5.941194122030226 20.536429416467723 0 0 0
1274 60 1 8.226597768522183 12.637210015213494 2.51213568624334 0 0 0
4544 32 1 17.349293091990717 24.416041674723644 9.795305207415517 0 0 0
9643 64 1 6.1884325730900684 25.625606177261655 16.32398650478576 0 0 0
3097 17 1 10.771728411003314 6.232928424311662 0.5585932744903923 0 0 0
9648 64 1 8.584362015540297 26.203598240209782 22.245349614732024 0 0 0
4375 29 1 12.596452568481427 19.7378545638386 2.2755217892112563 0 0 0
8795 59 1 1.7558159862314104 16.78471584611498 8.565069940196377 1 0 0
1674 11 1 14.678284559401348 19.433840321431024 23.187394028139277 0 0 0
8043 53 1 1.4079427927316237 8.3664219175037 8.926007208737483 0 0 0
8044 53 1 2.6630595784801043 8.662842672403558 9.767886999009578 0 0 0
8045 53 1 2.7862144427314997 8.31869264699451 11.234681292966375 0 0 0