LAMMPS data file via write_data, version 29 Oct 2020, timestep = 32000000

10752 atoms
2 atom types
10752 bonds
3 bond types
10752 angles
3 angle types
10752 dihedrals
3 dihedral types

-1.4019591925125496e-01 3.1008115919238300e+01 xlo xhi
-1.2113307625790526e-01 2.6791853076229280e+01 ylo yhi
 2.6102456176932833e+01 2.5689690382240519e+02 zlo zhi

Masses

1 14
2 15

Pair Coeffs # lj/cut/omp

1 0.0914 3.95
2 0.1947 3.75

Bond Coeffs # harmonic/omp

1 449.5 1.53
2 449.5 1.53
3 449.5 1.53

Angle Coeffs # harmonic/omp

1 62.0967 114
2 62.0967 114
3 62.0967 114

Dihedral Coeffs # opls/omp

1 1.411 -0.271 3.145 0
2 1.411 -0.271 3.145 0
3 1.411 -0.271 3.145 0

Atoms # molecular

1            1            1      10.4646      23.5403      26.2633
2            1            1      10.5674      22.4238      27.3164
3            1            1      9.49135      22.5774      28.4318
4            1            1      9.36163      21.4333      29.3665
5            1            1      8.41862      21.5803      30.5437
6            1            1      8.44483      20.4038       31.477
7            1            1      7.26346      20.5219      32.4428
8            1            1      7.55211      21.5484      33.5266
9            1            1      6.52001      21.7516      34.5916
10            1            1      6.98563      22.4184      35.8936
11            1            1      5.79578      22.7915      36.7742
12            1            1      6.30757       23.668      37.8765
13            1            1      5.20648      24.1747      38.7562
14            1            1      5.78915      25.1434      39.7451
15            1            1      6.39094      24.5078      41.0431
16            1            1      7.04928      25.4701      41.9405
17            1            1      7.81352       24.753      43.0779
18            1            1      8.59255       25.672      43.9793
19            1            1      9.30796      24.9075      45.0556
20            1            1      10.1418      25.8126      45.9603
21            1            1      10.6065       25.242      47.2728
22            1            1      11.5271      26.1697      48.1034
23            1            1      12.1757      25.4948      49.3102
24            1            1      12.5545      26.4594      50.4048
25            1            1      11.4223      26.6199      51.4457
26            1            1      11.8129     0.734428      52.4978
27            1            1      11.0219     0.853525      53.7868
28            1            1      11.4099      2.15909      54.5592
29            1            1      10.6925      2.03947      55.8012
30            1            1      10.3425      3.32393      56.6333
31            1            1       9.8474       2.7514      57.9391
32            1            1      9.05719      3.66445      58.8342
33            1            1      8.65256      2.68436       59.933
34            1            1      7.77742      3.31832      61.0728
35            1            1      7.33286      2.34355      62.1629
36            1            1      6.33727      2.94985       63.107
37            1            1      5.78597      2.04234      64.2159
38            1            1      4.75937      2.61998      65.1635
39            1            1      4.34214      1.63812       66.223
40            1            1      3.42933      2.33316      67.2179
41            1            1      2.89066      1.33693      68.2649
42            1            1      2.03153      2.01525      69.3316
43            1            1      1.59199     0.895942      70.2615
44            1            1     0.533038      1.17026      71.3264
45            1            1       1.1353      2.03631      72.4788
46            1            1     0.193174      2.35304      73.6456
47            1            1     0.609371      3.50596      74.5965
48            1            1      30.8106      3.74034      75.7686
49            1            1     0.241697      4.80195      76.7439
50            1            1      30.2278      5.23055      77.7049
51            1            1      30.5908      6.23161      78.8355
52            1            1      29.4135      6.64545      79.7255
53            1            1      29.9471      7.54894      80.8188
54            1            1      30.7882      6.72889      81.8291
55            1            1     0.588257      7.61022      82.5585
56            1            1       1.0606      6.82498      83.8227
57            1            1      1.91815      7.71813      84.6483
58            1            1      2.46692      6.98781      85.8879
59            1            1      3.25295      7.94947      86.7866
60            1            1       3.7013      7.19579      87.9791
61            1            1      4.62462      8.03475      88.8203
62            1            1      5.25535      7.31375      90.0322
63            1            1      6.00731      8.06293      91.0758
64            1            1      4.96851      8.67351      92.0219
65            1            1      4.65759      7.91861      93.2676
66            1            1      3.74103      8.68355      94.2288
67            1            1      3.04905      7.87758      95.2286
68            1            1      2.40829      8.81112      96.2532
69            1            1      1.72344      7.93886      97.2961
70            1            1      1.01016      8.63042      98.4291
71            1            1     0.397424      7.77748      99.5539
72             1             1       30.7256       8.55374       100.639
73             1             1       30.1332       7.73854       101.707
74             1             1       31.1939       6.96544       102.567
75             1             1        30.554       6.13804       103.668
76             1             1      0.356828       6.00729       104.839
77             1             1     -0.217674       4.95645       105.758
78             1             1      0.802106       4.58025       106.815
79             1             1      0.373102        3.4582       107.798
80             1             1       1.44674       3.46071        108.85
81             1             1       1.07568       2.53658       109.979
82             1             1       2.21786       2.10715        110.78
83             1             1        1.8714       1.15828        111.95
84             1             1      0.897967        1.7884       112.954
85             1             1      0.443726      0.850311       114.048
86             1             1       30.6085       1.44234        115.06
87             1             1       30.0234      0.370367        116.07
88             1             1       29.1257       1.02336       117.192
89             1             1       28.5638      0.118067       118.198
90             1             1       27.5064      0.759145       119.087
91             1             1       27.1752        26.847       120.304
92             1             1       26.0712      0.431471        121.21
93             1             1       25.6325       26.1544       122.071
94             1             1       24.6841     -0.243749       123.145
95             1             1       25.3326      0.754782       124.123
96             1             1       24.3772       1.17573       125.141
97             1             1       24.9103        2.1728       126.179
98             1             1       23.9945       2.18332       127.393
99             1             1       24.2103       3.43698       128.183
100             1             1       23.3506       3.64681        129.43
101             1             1       23.6273       4.93079       130.198
102             1             1       22.7646        4.8184       131.435
103             1             1       22.9162       6.08575        132.19
104             1             1       22.0936       6.16454       133.501
105             1             1       22.1471       7.38285        134.49
106             1             1       21.1944       7.15975       135.633
107             1             1       21.6271       6.13366       136.621
108             1             1       20.4509       5.87132       137.507
109             1             1       20.7633       5.19035       138.811
110             1             1       19.7347       4.40665        139.61
111             1             1       20.5617       3.74315        140.72
112             1             1       19.8214       2.75624        141.56
113             1             1       18.6516       3.39991       142.376
114             1             1       18.1942       2.39628       143.384
115             1             1        19.396       1.61818       144.009
116             1             1       18.9123       1.11547       145.345
117             1             1       17.4249       1.25802       145.205
118             1             1       16.9456      0.932755       146.568
119             1             1       17.9572    0.00453891       147.308
120             1             1       17.1731       26.2341       148.449
121             1             1       17.9946       25.2008       149.175
122             1             1       18.6872        25.856        150.36
123             1             1        19.493       24.9358       151.254
124             1             1       20.0311       25.6674       152.453
125             1             1       20.7813       24.8008        153.38
126             1             1        21.487       25.6068       154.501
127             1             1       22.2586        24.792       155.472
128             1             1       22.8461       25.6159       156.605
129             1             1       23.6511       24.9213       157.641
130             1             1       24.3924       25.7245       158.709
131             1             1       25.1727       24.7106       159.448
132             1             1       25.4523        25.528       160.645
133             1             1       26.3875        24.851       161.615
134             1             1       26.5696       25.7751        162.83
135             1             1       25.4901       26.0519       163.851
136             1             1       26.0331       27.1293       164.723
137             1             1       25.1625      0.692128       165.893
138             1             1       25.9181       1.29008       167.057
139             1             1       24.9664       1.98966       168.085
140             1             1       25.7022       2.57757       169.321
141             1             1       24.7022       3.42748       170.189
142             1             1       25.3808       4.27659       171.261
143             1             1       24.2908       4.95244       172.011
144             1             1        23.423       3.94461       172.829
145             1             1       24.2284       3.26697       173.922
146             1             1       23.4107       2.43481       174.926
147             1             1       24.1248       1.72937       176.045
148             1             1       24.9368       2.62833       176.948
149             1             1       25.7618       1.86613       177.994
150             1             1       26.3113       2.70924       179.101
151             1             1        26.882       1.85053       180.132
152             1             1       27.4988       2.60052        181.31
153             1             1        28.067       1.55666         182.3
154             1             1       28.8672       2.41588       183.288
155             1             1       29.5325       1.58714       184.354
156             1             1       30.3682       2.43011       185.259
157             1             1    -0.0391136       1.65876       186.296
158             1             1       30.2577       1.10458       187.452
159             1             1       30.9103       0.12908       188.372
160             1             1       29.8555       26.5312       189.302
161             1             1       30.3546       25.7769       190.555
162             1             1       29.2612       25.1813       191.414
163             1             1       29.8769       24.6544       192.648
164             1             1       28.8051       23.9901       193.471
165             1             1        29.352       23.1225       194.544
166             1             1       29.9686       23.8531       195.726
167             1             1       30.9861       23.0455       196.536
168             1             1      0.482305       23.8229       197.604
169             1             1       1.41006        23.039       198.445
170             1             1       1.94515       23.8518       199.623
171             1             1       2.94999       23.1046       200.442
172             1             1       3.42483        23.906       201.564
173             1             1       3.98287       22.9641       202.665
174             1             1       4.75422       23.7687       203.655
175             1             1       5.40258       22.9443       204.655
176             1             1       5.97668       23.7449       205.786
177             1             1        7.0023       23.0282       206.604
178             1             1       7.64079       23.6834       207.804
179             1             1       6.38632       24.2128       208.634
180             1             1        7.0803       24.9155       209.779
181             1             1       6.08102       25.3826       210.785
182             1             1       6.77984       26.0035       211.955
183             1             1       5.68393       26.5369       212.881
184             1             1       6.22971      0.354028       214.081
185             1             1        5.3344      0.969768       215.179
186             1             1       6.00492        1.5935       216.371
187             1             1       4.91191       2.24568       217.239
188             1             1       5.62599       3.14611        218.19
189             1             1       5.97201       2.44851       219.539
190             1             1       6.82034       3.32139       220.511
191             1             1       7.22776       2.56517       221.746
192             1             1       8.12985       3.33646       222.732
193             1             1       8.78758       2.37991       223.769
194             1             1       9.84725       3.04307       224.722
195             1             1         10.44       2.24286       225.854
196             1             1        11.288       3.12435       226.789
197             1             1       12.0737       2.31958       227.767
198             1             1       11.0654       1.77157       228.814
199             1             1       11.5437      0.717748       229.828
200             1             1       10.4319      0.574275       230.775
201             1             1       10.6536       26.2541       231.656
202             1             1       9.60958       26.1618       232.824
203             1             1        10.013       25.0948       233.827
204             1             1       9.09317       24.8333       234.997
205             1             1       9.58951       23.6908       235.871
206             1             1       8.68353       23.3859       237.007
207             1             1       9.15702       22.3352       238.007
208             1             1       10.0331       23.0553       238.973
209             1             1       10.7014       22.1812       240.005
210             1             1       11.3619       22.9059        241.17
211             1             1        11.991        21.969       242.124
212             1             1        12.483       22.7686       243.301
213             1             1       13.1022       21.8204       244.341
214             1             1       13.7756       22.5977       245.466
215             1             1       14.6334       21.7853       246.398
216             1             1        15.272       22.5522       247.641
217             1             1       14.1066       23.0116       248.516
218             1             1       14.4557       24.0263        249.61
219             1             1       13.3663       24.1697       250.632
220             1             1        13.814       24.9559       251.917
221             1             1       12.7476       25.3186       252.866
222             1             1       12.7715       24.2089       253.899
223             1             1        11.614       24.4477       254.836
224             1             1        11.656       23.4625       256.008
225             2             1       16.4177       26.2546       253.907
226             2             1       15.4042       26.5705       254.971
227             2             1       15.3416       25.5026       255.973
228             2             1       14.3179       25.6359       26.3117
229             2             1       14.4686       24.5373        27.339
230             2             1       13.4149       24.5128        28.397
231             2             1       13.4758       23.3679       29.4275
232             2             1       12.3235       23.4841       30.4118
233             2             1       12.4871        22.439       31.4203
234             2             1        11.353       22.5577       32.3907
235             2             1       11.7596       23.4828       33.5002
236             2             1       10.5242       23.7883       34.2796
237             2             1       10.9278        24.539        35.527
238             2             1       9.77478       25.1438       36.2554
239             2             1       10.1247       26.0303        37.473
240             2             1       9.02332       26.2052       38.5094
241             2             1       9.42233      0.272974       39.6221
242             2             1       10.1652       26.5715        40.836
243             2             1       10.8079      0.672826        41.685
244             2             1       11.8142     0.0296049       42.6734
245             2             1       12.2345       1.09903       43.7453
246             2             1       13.3326      0.424708       44.5788
247             2             1       13.8222       1.33984       45.6765
248             2             1       14.6286      0.583244       46.7749
249             2             1       15.0566       1.42846       48.0209
250             2             1       16.0182      0.690784       48.8886
251             2             1       16.4837       1.60697        50.017
252             2             1       15.3047       1.99459        50.941
253             2             1       15.9633       2.85354       52.0178
254             2             1       14.8171       3.23529       53.0012
255             2             1       15.3712       4.11745       54.1503
256             2             1       14.3132       4.50357       55.1575
257             2             1       14.9561       5.49317       56.1056
258             2             1       14.0413        5.9517       57.2575
259             2             1       13.5708       4.81215       58.1412
260             2             1       12.7313       5.36039       59.3183
261             2             1       12.2249       4.43213       60.3855
262             2             1       11.4836       5.33961       61.3589
263             2             1       11.0583        4.5288       62.5808
264             2             1       10.0493       5.17887       63.4306
265             2             1       9.52589        4.2109       64.4235
266             2             1       8.58557       4.89157       65.4526
267             2             1       7.98152       3.74428       66.2905
268             2             1       7.05741       4.33316       67.3961
269             2             1       6.61148       3.34377       68.5379
270             2             1       5.93481       4.06105       69.7687
271             2             1       5.25908       3.10766       70.7834
272             2             1       4.39419       3.78148       71.8288
273             2             1       5.06035       4.58346       72.9848
274             2             1        3.9331       5.02136       73.9162
275             2             1       4.42507       5.88106       75.0606
276             2             1       3.44264       6.22855        76.192
277             2             1       4.07846       7.11699       77.2078
278             2             1       3.06342       7.51353       78.3019
279             2             1       3.53601       8.56213       79.2906
280             2             1       2.46203       9.07547       80.2403
281             2             1       3.08651       10.0013       81.2693
282             2             1       3.93066       9.27232       82.2844
283             2             1       4.77647       10.2052        83.103
284             2             1       5.24834       9.49081       84.3538
285             2             1       6.26947       10.1897       85.1513
286             2             1       6.72064       9.30606       86.3158
287             2             1       7.63544       10.0812       87.2896
288             2             1       8.16193        9.2911       88.4927
289             2             1       8.92913       10.2901       89.4193
290             2             1       9.70153       9.77145        90.593
291             2             1       9.34355        10.472       91.8751
292             2             1        8.2739       9.81486       92.6702
293             2             1       7.85047       10.6283       93.8601
294             2             1       7.06354       9.89304       94.8977
295             2             1       6.60206       10.7466       96.0706
296             2             1       5.65106       10.0861       97.0811
297             2             1       5.13546       11.0773       98.1684
298             2             1       4.38558       10.3313       99.2638
299             2             1       3.50202       11.0254       100.238
300             2             1       2.92918       10.0718       101.276
301             2             1       3.82406       9.63439       102.364
302             2             1       3.15176       8.72514       103.412
303             2             1       4.23086       8.17615       104.265
304             2             1       3.69521       7.28348       105.371
305             2             1       4.85479       7.00735       106.239
306             2             1       4.46175       6.21398       107.476
307             2             1       5.56162       5.86646       108.499
308             2             1       5.14683       4.74619       109.512
309             2             1       6.24911       4.56815       110.476
310             2             1       5.95749       3.51275       111.486
311             2             1       4.97616        4.1977       112.442
312             2             1        4.4604        3.2161       113.465
313             2             1       3.51038       3.78772       114.484
314             2             1        3.0133       2.83796       115.531
315             2             1        2.1037       3.54858       116.557
316             2             1       1.73311       2.59533       117.669
317             2             1      0.548021       3.09918       118.497
318             2             1      0.216919       2.27654       119.778
319             2             1       30.4382       2.82813       120.812
320             2             1       30.0562       1.67898       121.798
321             2             1       28.9228       2.07496        122.76
322             2             1       29.4138       3.16831       123.677
323             2             1       28.4444       3.40983       124.824
324             2             1       28.9101       4.34709       125.905
325             2             1       27.9198       4.34823       127.066
326             2             1        28.143       5.60054       127.912
327             2             1        27.168       5.80837       129.114
328             2             1       27.6154       7.02443       129.906
329             2             1       26.7326       7.18349        131.09
330             2             1       27.2668       7.94544       132.204
331             2             1       26.0674       8.43753       132.996
332             2             1       26.5215       9.15391       134.284
333             2             1       25.3823        9.9497       134.843
334             2             1       24.4762       9.24656       135.847
335             2             1       25.1972       8.66165       137.004
336             2             1       24.2216       7.81755       137.808
337             2             1       24.7965       7.39726       139.153
338             2             1       23.7518       6.60816       139.893
339             2             1       24.2962       5.89946       141.103
340             2             1       23.1374       5.35116       141.967
341             2             1       23.5701       4.44113       143.123
342             2             1       22.4307       4.13803       144.047
343             2             1       22.8627       3.33475       145.242
344             2             1       21.8011       3.15389       146.376
345             2             1       22.1657       2.16306       147.394
346             2             1       20.9455       1.76696       148.178
347             2             1       21.3025      0.738023       149.211
348             2             1       22.1887       1.43161       150.192
349             2             1       22.8141      0.595438       151.293
350             2             1       23.5384       1.41291        152.29
351             2             1       24.1969      0.480611       153.292
352             2             1       25.1629       1.18801       154.221
353             2             1       25.6681      0.299932       155.346
354             2             1       26.5444       1.12096       156.289
355             2             1       27.4262      0.310276       157.205
356             2             1       27.7516       1.05272       158.473
357             2             1       28.8205      0.305751       159.279
358             2             1       29.1739      0.800996       160.692
359             2             1       30.3947      0.155851       161.306
360             2             1       30.5972       1.01499       162.649
361             2             1       29.3806      0.998846       163.525
362             2             1       29.2965       2.18351       164.458
363             2             1       30.5258       2.31794       165.261
364             2             1       30.2644       3.38091       166.284
365             2             1       28.8119       3.22254       166.956
366             2             1       28.6877       3.98229       168.241
367             2             1       29.7011       5.08411       168.259
368             2             1       29.7509       5.80744       169.597
369             2             1        28.466       5.61386       170.357
370             2             1       28.6032       6.68544        171.48
371             2             1       27.7109       6.38934       172.664
372             2             1       28.3044       5.27052       173.585
373             2             1       27.2846       4.86413       174.588
374             2             1       27.7506       4.06757       175.767
375             2             1       28.5382         4.839       176.697
376             2             1       29.1262       4.02942       177.852
377             2             1       30.0183       4.84649       178.764
378             2             1       30.5597       4.15345       179.938
379             2             1      0.536934       4.86385         180.7
380             2             1      0.902177       3.86498       181.836
381             2             1       1.63884       4.68132       182.905
382             2             1       2.30076       3.87739       184.064
383             2             1       3.03625       4.70084       185.145
384             2             1          3.73        3.8988       186.185
385             2             1       2.77909       3.53325       187.253
386             2             1       3.44047       2.67775       188.365
387             2             1       2.51817       2.23234       189.483
388             2             1       3.15727       1.24393       190.401
389             2             1       2.17595      0.767132        191.42
390             2             1       2.78465       26.7689       192.479
391             2             1       1.65136        26.302       193.438
392             2             1       2.07268       25.3944       194.586
393             2             1       3.04027       25.9846       195.592
394             2             1       3.69236       25.0183       196.587
395             2             1       4.42902        25.848       197.565
396             2             1       5.17799       25.1451       198.665
397             2             1       5.90229       26.0975        199.62
398             2             1       6.66566       25.1904       200.529
399             2             1         7.174       25.9676       201.733
400             2             1        7.7752       25.1515       202.803
401             2             1        8.5857       25.8939       203.857
402             2             1       9.20144       25.0275       204.931