LAMMPS data file via write_data, version 23 Jun 2022, timestep = 11111117

9706 atoms
2 atom types
9690 bonds
3 bond types
9674 angles
3 angle types
9658 dihedrals
3 dihedral types

0 36.89775039 xlo xhi
0 26.67072 ylo yhi
37.0351338356885 199.71647056432084 zlo zhi
0 5.118309074200283 0 xy xz yz

Masses

1 14
2 15

Pair Coeffs # lj/cut/omp

1 0.0914 3.95
2 0.1947 3.75

Bond Coeffs # harmonic/omp

1 449.5 1.53
2 449.5 1.53
3 449.5 1.53

Angle Coeffs # harmonic/omp

1 62.0967 114
2 62.0967 114
3 62.0967 114

Dihedral Coeffs # opls/omp

1 1.411 -0.271 3.145 0
2 1.411 -0.271 3.145 0
3 1.411 -0.271 3.145 0

Atoms # molecular

1 2 1 10.334455769557211 1.313544134916552 46.47365862107354 0 0 0
2816 9 1 15.21133802386721 7.083374476922026 41.898788374078315 0 0 0
7685 50 1 0.8504263912381469 2.3536819099964004 45.03573845279981 0 0 0
4185 24 1 16.802291826672928 20.901647520051597 37.46893773468887 0 0 0
3194 19 1 16.910349916419257 8.166341120817851 37.869109867664896 0 0 0
391 57 1 15.384909411991952 6.890912835565104 51.03753462489473 0 0 0
613 6 1 18.346883628255707 7.7435989693182945 49.954401587812534 0 0 0
9186 60 1 1.021344262427923 17.89008023324235 40.5598559868186 0 0 0
4032 28 1 17.553989942389506 21.507867629340733 43.26876405610664 0 0 0
2299 14 1 18.441038950948794 25.781447461038315 50.0999659371491 0 0 0
4722 29 1 16.79601250268671 25.778450800268818 37.5738979086324 0 0 1
4407 28 1 11.235250454231531 21.457130124126916 37.46824684673258 0 0 0
218 2 1 5.640097658701047 24.503017562309918 40.51989460306563 0 -1 0
219 2 1 6.067743121383103 24.474076853209475 41.91693787690667 0 -1 0
220 2 1 7.079494309124634 25.604532060766513 41.99345063614147 0 -1 0
221 2 1 7.7793050155466945 25.521527807599142 43.28013481176238 0 -1 0
222 2 1 8.834152614468707 26.59937912514041 43.51794561630173 0 -1 0
223 2 1 9.04728155860266 0.02575124292895363 44.929045600302885 0 0 0
224 2 1 9.710048427840013 1.2630760925749003 45.10534943839388 0 0 0
304 6 1 12.466465036415652 3.482344383069821 43.50592414970162 0 0 0
305 6 1 13.00516388154673 4.901690824102291 43.64248452829692 0 0 0
306 6 1 13.762279306858586 4.926194206738706 44.98561679543272 0 0 0
307 6 1 14.496065730815712 6.227884578206202 45.19149240907274 0 0 0
308 6 1 15.166962946416572 6.2428930562200575 46.51498097889669 0 0 0
309 6 1 16.026898706047422 5.08566904285284 46.8511578343301 0 0 0
3801 24 1 16.114877838963142 15.812930264082706 37.36217870675111 0 0 0
2295 14 1 15.31286161811653 1.5271683844683657 47.02549728544513 0 1 0
2817 9 1 16.596176961686783 7.070078709678126 42.59891174311288 0 0 0
7304 48 1 6.686170380772506 2.4401429193797792 51.64233582416119 0 0 0
1454 10 1 7.516601514157474 13.607203757371655 38.95203391612016 0 0 1
2297 14 1 16.820205190061742 0.30990966816379883 48.71204543722077 0 1 0
5 2 1 13.08736503530317 3.478602149404259 49.75764492481795 0 0 0
7691 50 1 5.221679540888583 5.658391818408789 50.0744367478779 0 0 0
3644 22 1 12.138199710718668 12.34053794576951 37.6703046990698 0 0 0
8419 2 1 0.9448875375601187 8.961496467558405 40.76653384916501 1 0 0
381 6 1 11.070108994691825 2.2658347171126083 41.94586408656669 0 0 0
382 6 1 11.742556627977422 3.570546887252645 42.233494379255625 0 0 0
383 57 1 9.122372807634132 4.680526885289825 44.85969014550067 0 0 0
384 57 1 10.181698975179314 5.840133130087984 45.158320157916314 0 0 0
385 57 1 10.631719698651185 5.815165315739967 46.54762494217993 0 0 0
386 57 1 11.64614218500335 6.97982583127936 46.8131572028434 0 0 0
387 57 1 12.300376108355218 7.173271446331127 48.20448289612694 0 0 0
388 57 1 13.234797278976247 8.259169327296798 48.477085162933435 0 0 0
389 57 1 13.686456156417297 8.198386099570312 49.88968333348058 0 0 0
390 57 1 14.323413626638335 6.901381754366523 49.99948028349926 0 0 0
2891 9 1 12.404332304416242 4.603727400402721 38.570867737767166 0 0 0
8812 57 1 11.621613285827953 18.196860806710358 52.631546642657064 0 0 0
2286 14 1 9.21158609264696 23.41904261121982 39.12562091941452 0 0 0
3418 19 1 13.655337411537833 9.575292731056654 39.2438014341551 0 0 0
1759 45 1 8.032480918720413 17.87832153512612 38.73309898289976 0 0 0
1131 35 1 9.84067189594376 11.222386081868498 40.85333102583168 0 0 1
602 57 1 5.977760888789987 1.744702330701367 40.41555367676992 0 0 0
603 57 1 6.137404095752531 2.1913729144852514 41.911060053603556 0 0 0
604 57 1 7.123507188077193 3.2743483332840784 41.96230120082174 0 0 0
605 57 1 7.738365709680571 3.3447799501162376 43.3313047716056 0 0 0
606 57 1 8.61134176247241 4.650577967251994 43.36140914238796 0 0 0
607 6 1 13.886951957806247 9.539315092779008 45.136027457327145 0 0 0
608 6 1 15.104066191968535 10.387658622189921 45.316272654675174 0 0 0
609 6 1 15.56960529924568 10.412171495578841 46.71360650267555 0 0 0
610 6 1 16.598308640044902 9.434815339962077 47.01277659714412 0 0 0
611 6 1 16.88326936232474 9.084243938206479 48.41928785575871 0 0 0
3420 20 1 16.808154797222826 12.566292093870329 38.09316187860689 0 0 0
2379 16 1 18.40602622432737 2.490043043685944 45.16019277402083 0 0 0
8899 44 1 6.277531948287556 19.771191194554337 50.6082954751958 0 0 0
4415 28 1 16.899080227300807 25.932283890394583 43.86161154668152 0 0 0
9280 61 1 2.0088208355806536 21.139066247519757 46.59014916607072 0 0 0
311 6 1 17.49946078420603 3.681752099339334 48.3740868325317 0 0 0
2200 14 1 3.210684445320838 19.976433739765717 38.85308594454293 0 0 0
7591 48 1 3.8484723064228454 0.15820128528269223 43.63690336978686 0 0 0
9283 61 1 3.817127508460292 23.41739121329487 49.15570216104621 0 0 0
827 6 1 10.742212084242261 6.906111008670996 42.10108928814523 0 0 0
828 6 1 11.93867165241576 7.978458998846381 42.02424127544759 0 0 0
829 6 1 12.380492977457127 8.135554557620809 43.549252883553656 0 0 0
830 6 1 13.400313747144164 9.218148004258143 43.73206729529505 0 0 0
824 5 1 8.68870138459585 5.526896276920429 39.12799069887519 0 0 1
832 8 1 5.439407714324718 6.380517702011613 40.430061961409145 0 0 0
833 8 1 5.80214744873487 6.529114196826691 41.87724987113931 0 0 0
834 8 1 6.575936021986294 7.782893577361491 42.1377460992837 0 0 0
835 8 1 7.320292786239519 7.840352918925614 43.38929839703491 0 0 0
836 8 1 7.986679634563231 9.177392524446452 43.60420728452688 0 0 0
837 8 1 9.250333439253762 9.02093734937583 44.42349174740466 0 0 0
838 8 1 9.83177757066837 10.340846718997732 44.956027955276916 0 0 0
839 8 1 10.73412670374239 10.224361538302885 46.27129147084603 0 0 0
840 8 1 11.421747562187454 11.473711335427373 46.52644859725668 0 0 0
841 8 1 11.919767625623274 11.402314029461081 47.94336643021343 0 0 0
842 8 1 13.166114105575986 12.319625423617278 48.08014599252627 0 0 0
2594 1 1 17.301345169040953 3.3607050862686783 39.38146525821296 0 0 0
9499 51 1 2.617433219497893 22.419448954232752 43.34189414546426 0 0 0
2198 13 1 1.965780777288682 21.256495283646856 37.25754477275284 0 0 1
2199 13 1 2.553331902719791 19.93088782221461 37.510816656074375 0 0 1
1460 11 1 16.35805644482458 18.075228238184145 46.83755276368124 0 0 0
3649 22 1 15.5639363975464 15.706545646538222 41.56109580014128 0 0 0
2376 16 1 16.906694589527422 2.5932798296208306 42.662178579298754 0 0 0
6247 52 1 0.47134324007758255 15.511782855939652 51.22755393309156 1 0 0
1771 45 1 17.066756456123542 22.455588233967926 48.40404796951633 0 0 0
1225 61 1 16.390402876314212 14.469941087827614 52.86839562561509 0 0 0
2298 14 1 17.899686077659325 25.875560274828423 48.72515349681087 0 0 0
4416 28 1 18.30117832019616 25.978315122949056 44.51509187870018 0 0 0
3421 20 1 17.769141039619278 12.49516928564179 39.16813049129757 0 0 0
1128 35 1 7.617203188221021 8.84486737607297 38.824140899954855 0 0 1
8725 56 1 1.0150765104445048 13.16368505391397 40.427851923602766 1 0 1
7297 48 1 0.9981055304606503 25.603995070423867 45.899073192780975 1 -1 0
1755 12 1 3.9929311931653584 14.408813701383941 38.9186532724019 0 0 0
6631 55 1 1.5326686348389686 21.384243386261677 51.09931908386469 1 0 0
6 2 1 14.435336211355306 2.9220752534843157 49.80209592576083 0 0 0
2371 16 1 12.580125409171723 26.635161218966513 38.714936982091494 0 -1 0
2362 14 1 6.855248182360278 21.042421320331304 37.4203176107346 0 0 0
1209 9 1 13.421155232867797 13.698951168699315 43.71155354409058 0 0 0
1210 9 1 14.275444341195797 13.479385441157465 44.89498490294705 0 0 0
1211 9 1 15.06006712997055 14.738393341931337 45.25077452441758 0 0 0
1212 9 1 15.437196633403852 14.710787617185938 46.71260696625703 0 0 0
1213 61 1 7.140933291232891 12.543370195718673 43.427496191664055 0 0 0
1214 61 1 8.322018493467597 13.520838304714585 43.6599615017184 0 0 0
1215 61 1 8.60416397674909 13.894189888946444 45.15323881366941 0 0 0
1216 61 1 9.86931597589067 14.763785726407983 45.237736657910986 0 0 0
1217 61 1 10.410196244314903 14.95695197450315 46.61378615058429 0 0 0
1218 61 1 12.002339923490586 15.190467908802063 46.75181326049455 0 0 0
1219 61 1 12.508056478006987 15.468917235299159 48.068381467394985 0 0 0
1220 61 1 12.90174581963226 16.948081731346893 48.18477615935288 0 0 0
1221 61 1 13.459718889872537 17.07431592323883 49.64353391808176 0 0 0
8434 2 1 11.630235039685074 13.660439277753207 52.537298690414815 0 0 0
601 57 1 4.823335927482332 0.8173729236301459 40.189840323900775 0 0 0
826 6 1 10.427053347033176 6.594694611830651 40.60560349131954 0 0 0
4410 28 1 13.874465198723822 22.594673084472785 40.074244807311885 0 0 0
1129 35 1 8.461942058629395 10.121952710712392 39.16749835868648 0 0 1
7587 48 1 0.7133221483956533 26.49252029211739 40.3515645010933 1 -1 0
1288 61 1 4.481930797038657 9.837220753940645 40.39811756778103 0 0 0
1289 61 1 5.376716348433415 11.070314568540253 40.431296647309956 0 0 0
1290 61 1 5.541434620682453 11.49028950593264 41.877088230514374 0 0 0
1291 61 1 6.831818393987726 12.176640315230493 42.06039675260868 0 0 0
1456 11 1 13.619272731193542 17.716941487754728 43.69508843868955 0 0 0
1457 11 1 14.028418258504711 18.103857222266804 45.07991515710272 0 0 0
1458 11 1 14.98811728177306 19.270018995022518 45.05391888364829 0 0 0
1459 11 1 15.489493227896329 19.283336525176036 46.41130239033313 0 0 0
2369 16 1 10.63190471255084 25.61308653638841 37.217106663348154 0 -1 0
9511 51 1 11.440765656465057 0.41052942988964325 52.746614298987694 0 1 0
1137 9 1 18.357898311152926 12.455571992667185 50.000204572413146 0 0 0
9495 51 1 0.1802766233891247 21.927365873643197 40.151664837490586 0 0 0
3802 24 1 17.207700996025064 16.71574423488444 37.6716409069466 0 0 0
597 32 1 1.409044166937177 3.2573086767384187 37.23730319289862 0 0 1
7296 48 1 0.7346277725265378 24.48799063229552 44.92427067449536 1 -1 0
7911 31 1 8.729190374987912 9.200956240355186 49.479010193657786 0 0 0
1453 10 1 7.266309212199268 13.359397846638915 37.49471234981755 0 0 1
848 8 1 17.39745389901996 9.140775316133166 52.8584093713838 0 0 0
378 6 1 8.969339320991631 0.9675098599286842 39.01051910485654 0 0 0
7902 31 1 2.719796551157564 3.271888350521236 42.063192899187015 0 0 0
1533 11 1 11.909875704121609 16.587225472396412 42.11255503268446 0 0 0
1534 11 1 12.252152080771134 17.008500240614815 43.59949305447601 0 0 0
1535 12 1 6.741126987874941 16.733812847452956 42.19750152617273 0 0 0
1536 12 1 7.3530743773503335 17.02636418241687 43.55306515838138 0 0 0
1537 12 1 8.575981140512988 17.85396502121448 43.52280167026933 0 0 0
1538 12 1 9.036424015470987 18.126036172678848 44.920752484807736 0 0 0
1539 12 1 10.120800110731905 19.100482450553574 45.22358901308306 0 0 0
1540 12 1 11.115831918848155 18.914744179663966 46.302960115636424 0 0 0
1541 12 1 11.58998515539953 20.226596641086886 46.69847712736406 0 0 0
1542 12 1 12.36588163613485 20.18482189563366 47.99965790747281 0 0 0
1543 12 1 12.72929885209001 21.579221732763106 48.40990322039679 0 0 0
1544 12 1 13.314404469722461 21.468435478112116 49.65184644545191 0 0 0
7298 48 1 2.2051903797522305 25.570349830338138 46.81641468484098 0 -1 0
8896 44 1 3.8499500864442817 17.912259408842562 48.38760775900195 0 0 0
7590 48 1 2.35941474299561 0.060903777047189876 43.22812901962027 0 0 0
1760 45 1 9.153065280449129 18.64376078730155 39.08100217234949 0 0 0
2818 9 1 16.721242898067953 8.276769212084771 43.494732530918625 0 0 0
380 6 1 10.597977889877786 2.1037812673131464 40.51318145118869 0 0 0
1756 12 1 4.227850513925752 14.51241056202029 40.36520063081241 0 0 0
1757 12 1 5.210240699616679 15.604642146006292 40.6304949075145 0 0 0
1758 12 1 5.737693421922053 15.519299954748336 42.03628932521167 0 0 0
2971 19 1 17.63645225944501 8.079867206474436 39.28316843134879 0 0 0
214 17 1 2.416521153800913 24.57318915491477 37.36604947381321 0 -1 1
1761 45 1 9.378165762726947 18.67891824705119 40.60510696018746 0 0 0
1762 45 1 10.538512786629841 19.751610997969156 40.74364241456507 0 0 0
1763 45 1 10.966889131877162 19.778513618278474 42.13239157410504 0 0 0
1764 45 1 12.038488208117668 20.804120178919025 42.18429085231388 0 0 0
1765 45 1 12.723010487072575 21.00544466165306 43.53100609335919 0 0 0
1766 45 1 13.645847506252458 22.166237388332892 43.78016433907174 0 0 0
1767 45 1 14.098605165488244 22.385568853354773 45.236616062998415 0 0 0
1768 45 1 14.753868205192951 23.750127609476547 45.554792800025275 0 0 0
1769 45 1 15.581100525720343 23.776029208065285 46.79257113041691 0 0 0
8804 57 1 5.533179884787454 15.774486363018895 46.60966103126893 0 0 0
8510 60 1 3.966973260681965 14.517791143399814 49.79668553377617 0 0 0
3650 22 1 16.80961692615663 15.688595221662888 42.3863108406948 0 0 0
4028 28 1 13.948236708009782 19.079511786618646 40.32678564177464 0 0 0
3651 22 1 16.875892789147574 16.998849425668237 43.169374268098245 0 0 0
8121 39 1 0.7596994668148217 6.641884000138511 45.54059887632427 1 0 0
4 2 1 12.72353031382818 3.7330199065483476 48.2527525377916 0 0 0
1983 14 1 8.803784029949329 22.111650317832414 43.46635617212581 0 0 0
1984 14 1 9.23236925263907 22.435148048482255 44.821799040954915 0 0 0
1985 14 1 10.417172491499057 23.36276687776626 44.894524604872075 0 0 0
1986 14 1 10.686861043727838 23.729029923384257 46.328484949515506 0 0 0
1987 14 1 11.316724663687086 25.052943213719477 46.79940111002268 0 0 0
1988 14 1 12.015364404125714 24.807982385065362 48.038782900880705 0 0 0
1989 14 1 12.781938160421742 25.949300341576834 48.571237167562224 0 0 0
1990 14 1 13.1967124440851 25.72129228557803 49.951415986912565 0 0 0
215 17 1 3.1266376361391 24.388833614079086 38.70258841327364 0 -1 1
8512 60 1 5.559989291053181 15.317972661483452 51.31495806851102 0 0 0
4417 28 1 18.53736459924618 24.88080342638786 45.53440805374886 0 0 0
4027 28 1 13.901712150275692 17.91181325098773 39.31521664726234 0 0 0
7303 48 1 5.289223501014325 2.1228191851204485 51.26611276957569 0 0 0
4565 22 1 18.11703326150247 0.284130593535622 39.4214007907898 0 1 0
9506 51 1 8.681512001764938 26.01630974798109 48.762955400935326 0 0 0
2203 14 1 5.615425879400624 19.977205385134784 40.42204138111197 0 0 0
2204 14 1 6.248149640662119 20.136205855366157 41.80985139570508 0 0 0
2205 14 1 6.932708101162958 21.38433151799736 42.175749449439714 0 0 0
2206 14 1 7.560597503918982 21.231039371813495 43.570330316127034 0 0 0
10 2 1 17.519468144366044 0.595657493092176 53.03451578802198 0 0 0
8507 60 1 2.36555231450939 12.14408774697967 47.32263610348616 1 0 0
2288 14 1 10.769038285437166 24.45290980501743 40.5892441135717 0 0 0
2289 14 1 11.570154197630908 24.30819892590744 41.893572031534575 0 0 0
2290 14 1 12.218917009939656 25.62685133385675 42.31994999602149 0 0 0
2291 14 1 12.693055240037568 25.597686827183963 43.779116704263615 0 0 0
2292 14 1 13.54654595273483 0.304493560428502 43.93973920571954 0 1 0
2293 14 1 13.990487979471673 0.44199359405261746 45.3623457819454 0 1 0
2294 14 1 14.815868108128804 1.637387166026359 45.65057177294454 0 1 0
3199 19 1 17.300596549912374 12.517350483197069 43.610462797458204 0 0 0
7079 47 1 0.9270675911647184 24.880342958047017 50.63002383392097 1 0 0
8127 39 1 5.424166797404033 10.159304805021064 50.35072842785942 1 0 0
1126 35 1 6.289411187888568 7.9924065006778555 37.16173095909588 0 0 1
9278 61 1 0.41541179527314653 19.699291100099284 45.41111769058258 0 0 0
301 3 1 6.382243145990609 25.523787567028222 37.180268792492214 0 -1 1
1054 8 1 4.4443742331847345 5.349855820977144 38.54394960031108 0 0 0
9505 51 1 7.268815180877436 26.02102092281119 48.137671190266005 0 0 0
599 32 1 3.2664436120224414 2.1243066273969693 38.81412647020404 0 0 1
312 6 1 18.00605904859155 3.683178235068788 49.81106843821197 0 0 0
8511 60 1 5.3917260574456 14.86811490425392 49.939206895513514 0 0 0
9509 51 1 10.311127691484968 1.8555861171372818 51.154248422727136 0 1 0
2 2 1 11.040197083348687 2.5892320657390524 46.584423491746115 0 0 0
6248 52 1 1.557376448924601 16.56759673566647 51.08929864399004 1 0 0
1530 11 1 9.240028581062505 14.658081168477095 40.45096985039059 0 0 0
831 8 1 4.674655714869093 5.164150186863597 39.99737215560742 0 0 0
217 17 1 4.5448043079191045 23.362719778209716 40.20256637381055 0 -1 1
2815 9 1 15.15755065401522 6.093860035719405 40.71720585291967 0 0 0
8421 2 1 2.478875251066074 7.755497819271723 42.25798087142875 0 0 0
3803 24 1 17.58894623772393 17.00425272644855 39.02778235206827 0 0 0
7589 48 1 2.3524695106905775 25.718230706993513 42.15299730802866 1 -1 0
1994 14 1 16.70199698861347 23.64743145855349 52.83430211110031 0 0 0
1224 61 1 16.302325426113576 14.819895889961959 51.38344903720402 0 0 0
2813 9 1 13.72492534946023 4.687936296500255 39.3393795407504 0 0 0
2814 9 1 13.806817141154783 6.037853863874845 40.02371060487204 0 0 0
9199 60 1 10.254901600939364 23.941846038075195 50.93919705775649 0 0 0
7081 47 1 2.4834565650713025 25.953441804569177 52.32182128865354 0 0 0
1770 45 1 16.423310448724777 22.499003038698802 47.114826877444706 0 0 0
302 3 1 7.170782567504394 0.02589013563706216 37.544789037118875 0 0 1
1993 14 1 15.819334562941483 23.585701385137547 51.60461324318466 0 0 0
8901 44 1 6.496143770844303 21.684190995200197 52.39164619335189 0 0 0
2296 14 1 16.49195005628036 0.5626472579055809 47.282188643018934 0 1 0
4025 28 1 12.368571955658076 16.74723472746459 37.79827573041538 0 0 0
821 5 1 6.470344117273434 3.1814415252813815 37.273878980521204 0 0 1
1208 9 1 12.405277195000552 12.612110293277047 43.501334186329636 0 0 0
6250 52 1 3.1222361859872723 17.749207336741083 52.61468894922986 0 0 0
9498 51 1 2.5075410965729104 20.960514939119577 43.02305731637496 0 0 0
3195 19 1 13.834754815046406 10.451920862804082 40.49987501967259 0 0 0
3196 19 1 15.213617229631256 10.523044166145274 40.97407633857496 0 0 0
8894 44 1 2.2050846356952807 16.667020379648473 46.922103695371725 0 0 0
1992 14 1 15.003910854288897 24.814066406240613 51.421167513541384 0 0 0
1546 12 1 15.085393868762724 20.55096835766156 50.94708460724817 0 0 0
3417 19 1 12.200053286901513 9.299748102434654 39.04815157515081 0 0 0
1463 11 1 18.22448855930566 16.583012654752896 49.60355649146676 0 0 0
1135 9 1 16.60767722438919 13.315033644214427 48.29591277419703 0 0 0
8802 57 1 3.953496464737252 14.512524668999816 45.12581264462848 0 0 0
7 2 1 14.627917075482534 1.8420562182898972 50.77603523476094 0 0 0
4031 28 1 17.123792652465923 20.242598371251123 42.61283237168713 0 0 0
7901 31 1 1.3528726302374572 3.1597622624715087 41.26425939089647 0 0 0
7916 31 1 12.925440750860211 9.118805216659412 53.190552202971546 0 0 0
7694 50 1 6.571849283822827 8.058550797240056 52.791144888034125 0 0 0
393 57 1 16.346306535509452 5.841258652542674 53.08519498384476 0 0 0
4409 28 1 13.202250616801233 22.51061623151329 38.652907433643215 0 0 0
3416 19 1 12.029233957497398 8.263162953041732 37.92931430694509 0 0 0
3646 22 1 13.712171888780206 13.54617193642301 39.014453264668425 0 0 0
8895 44 1 2.519663870740869 17.9352717644405 47.613985466597924 0 0 0
2819 9 1 18.06054341220775 8.32140432647287 44.149798736274555 0 0 0
1772 45 1 18.014064062125872 21.25207451404824 48.528914699965355 0 0 0
8509 60 1 3.826268750514834 13.494073911888124 48.69463416883126 1 0 0
1132 35 1 10.881694965085297 11.198192841188753 41.95465352437844 0 0 1
7900 31 1 0.931069208663696 4.37143532205469 40.483673860886555 0 0 0
8422 2 1 2.712352494923303 8.687877186909512 43.48191389613409 0 0 0
9502 51 1 5.503585011980198 23.86574072234444 45.46330919901714 0 0 0
2375 16 1 15.548973776978787 2.2637479647918046 42.053691954946686 0 0 0
1223 61 1 15.171379016515884 15.88894436861631 51.3731090269455 0 0 0
2592 1 1 15.5891202327341 2.4038945424625564 37.67478252375454 0 0 0
3652 22 1 18.22821369736502 17.24596457371968 43.84885963029021 0 0 0
846 8 1 15.814815567200315 10.209899318917518 51.33950356997841 0 0 0
8420 2 1 1.2214821062125045 7.6339915429874985 41.509142762699454 0 0 0
4029 28 1 15.323668702461081 19.11627381134161 41.02627408594561 0 0 0
4030 28 1 15.972363215505608 20.35327153490019 41.69427579896924 0 0 0
303 3 1 8.026275954143417 26.392522941066318 38.84806534165554 0 -1 1
4184 24 1 15.982274710560391 19.6885782419109 37.19165929190012 0 0 0
1532 11 1 10.704281695793062 15.656131823082427 42.03678757370445 0 0 0
7692 50 1 5.202343821982161 6.8078563585784 51.077754247979605 0 0 0
2370 16 1 12.153164224500722 25.539960034811337 37.772246037950204 0 -1 0
8435 2 1 13.064707980100536 13.340667141267378 53.03636855506202 0 0 0
5415 34 1 1.8464524640134432 7.733748650792496 51.293507873776946 1 0 0
4967 33 1 1.731379508535558 3.333748161064357 52.49452573616867 1 0 0
2201 14 1 4.03476677550531 18.64471019302265 39.16632831004783 0 0 0
1995 14 1 17.470207442812903 22.41625306885948 53.04080687085999 0 0 0
2593 1 1 16.715113766097083 3.382683355861919 37.943887801903884 0 0 0
8900 44 1 5.717550970603542 20.594026762931904 51.70389999477994 0 0 0
4721 29 1 16.029924335696307 24.522986093006768 37.191547425769734 0 0 1
4412 28 1 15.676053767188332 23.54939202800584 41.223788425964955 0 0 0
8811 57 1 11.538567810180094 19.354411773713235 51.693169974936616 0 0 0
6249 52 1 1.8638694289074096 17.13931054309509 52.436967027660174 0 0 0
1773 45 1 18.3881712614525 21.4098321211179 50.01188493927254 0 0 0
4411 28 1 14.799599796298583 23.7649684591062 40.025213008903 0 0 0
825 5 1 9.815408062611603 5.2222282443992984 40.233310691526604 0 0 1
9284 61 1 5.260922091360957 23.45397058299974 49.65151963978674 0 0 0
379 6 1 9.701161267456825 0.894509424521706 40.30871845636651 0 0 0
4966 33 1 1.4511140691074251 3.1164326919252283 51.004894744214624 1 0 0
3415 38 1 10.604749065615174 8.09493118695763 37.57067384866524 0 0 1
2372 16 1 13.987781928274277 26.669867297956202 39.261219461198834 0 -1 0
9187 60 1 1.0783456682025814 16.63414228073504 41.29282951576486 0 0 0
9202 60 1 12.821354436270404 22.588573272525476 53.130057845512866 0 0 0
7300 48 1 3.52174503476723 0.22538957119422323 48.63942003312772 0 0 0
3645 22 1 12.2735435233046 13.458024537700622 38.57074134618072 0 0 0
7688 50 1 2.3571766378492 4.411300267564666 47.90047936903781 0 0 0
8892 44 1 0.658543903116112 15.486381209289535 45.36023193531513 0 0 0
823 5 1 7.939864523704382 4.262008183916229 38.79012337050958 0 0 1
1133 35 1 11.407632490506645 12.569862602859988 42.31286793345881 0 0 1
7690 50 1 3.9363849169231995 5.553750392044791 49.426398838029606 0 0 0
7299 48 1 2.3323225371508176 0.06749910030828649 47.73179102192602 0 0 0
2373 16 1 14.053500707976966 0.9944080782572183 40.40761704137632 0 0 0
7080 47 1 1.153953679192156 26.042227488731147 51.575828137136256 0 0 0
7588 48 1 0.9989108890245715 25.636569265008177 41.61164804636392 1 -1 0
216 17 1 4.021389222976365 23.170069756976066 38.758215150389624 0 -1 1
2202 14 1 4.4873941684068495 18.961784388479586 40.499653209114506 0 0 0
3197 19 1 15.326583244055765 11.605269153182721 42.06231367085121 0 0 0
7593 48 1 5.601892899546033 1.0311882864470252 45.37091950170767 0 0 0
7594 48 1 5.772825984151108 2.299224748501591 46.2219640181003 0 0 0
7595 48 1 7.094468053559634 2.4177719486900235 47.010351233035024 0 0 0
7596 48 1 7.186544973400605 3.646788081450578 47.87535657060986 0 0 0
7597 48 1 8.53420917538489 3.7403977039429677 48.605705711172945 0 0 0
7598 48 1 8.554071270477854 4.846482865102989 49.640358538607366 0 0 0
7599 48 1 9.995804330556785 4.952143295485115 50.19501562601238 0 0 0
7600 48 1 10.030474036624682 6.059706162101646 51.22282389434673 0 0 0
9200 60 1 11.394683414235793 23.923898569538014 51.80324272842084 0 0 0
2378 16 1 18.249005996608343 3.717843769342871 44.24591092765961 0 0 0
7686 50 1 0.8817821425067076 3.127636964424764 46.21156044497583 0 0 0
8126 39 1 4.031159935122879 9.985966262761044 49.94844142110848 1 0 0
9510 51 1 11.613320491772475 1.4874019424193055 51.82966447704471 0 1 0
1130 35 1 9.13993625068388 9.915609779510628 40.54773762143185 0 0 1
1547 12 1 15.741848278707598 19.247976349832992 51.48407091290491 0 0 0
4026 28 1 12.53874451725656 17.856295601378882 38.72962716110152 0 0 0
8125 39 1 3.8186824465147446 8.960850351225496 48.7860013555824 1 0 0
7305 48 1 6.578276491581137 3.5134964354167297 52.732446148597596 0 0 0
9198 60 1 10.067500550530681 22.92634728536206 49.8360425996663 0 0 0
392 57 1 15.672819494294917 5.615035670182756 51.80554303682917 0 0 0
7910 31 1 8.497544782408061 8.171853488747697 48.342984766612396 0 0 0
8124 39 1 2.496795621879939 8.775011635692351 48.095429248701755 1 0 0
3647 22 1 13.805707776156607 14.65375444454733 40.07592283583457 0 0 0
7687 50 1 2.281411787983262 3.503224489998337 46.731457135149725 0 0 0
7903 31 1 2.8226735220879005 4.441223696155477 42.95851762068454 0 0 0
7904 31 1 4.116440210378809 4.375398511776229 43.65267624010082 0 0 0
7905 31 1 4.249775757436113 5.507926234529847 44.77247702811734 0 0 0
7906 31 1 5.683788692549688 5.616345604249329 45.170024696301745 0 0 0
7907 31 1 5.728991808456647 6.444659930302492 46.38399930499903 0 0 0
7908 31 1 7.055904365695392 6.688202244631785 46.923898536132995 0 0 0
7909 31 1 7.029238560951187 7.784778185155874 47.95232399845717 0 0 0
2363 14 1 7.612914632586871 22.332601528771054 37.685487191793264 0 0 0
7592 48 1 4.152586615211643 0.8151822858240219 44.93195027499846 0 0 0
1134 9 1 16.485910616040332 13.734090306892739 46.94046893715442 0 0 0
844 8 1 14.237690556363175 11.31532783876524 49.941423380286516 0 0 0
8129 39 1 6.820045096392359 11.636507102680008 51.82168434756917 0 0 0
9282 61 1 3.568617263385467 22.466529385989656 48.02065243878673 0 0 0
9508 51 1 9.748609889265472 0.5162966109144165 50.68925868141277 0 1 0
8130 39 1 7.107293930119168 12.813325284404767 52.65913777386058 0 0 0
3653 22 1 18.55560419194777 15.989531459777373 44.6170802891892 0 0 0
9500 51 1 3.9224982075259733 22.37749625555931 44.06586846991772 0 0 0
1754 12 1 3.0633873301534673 15.511898316558689 38.45388589945422 0 0 0
1286 61 1 2.9227537054289523 11.082015028854737 38.65730928350804 0 0 0
1548 12 1 16.768993212689526 19.359257196205732 52.53710370552061 0 0 0
9281 61 1 2.100652785076931 22.432437075758838 47.43513744629701 0 0 0
4034 28 1 18.556036725921054 20.441854667753972 45.32630577337902 0 0 0
1531 11 1 10.40171875525597 15.537522953844627 40.558856312879776 0 0 0
7302 48 1 5.100198751144744 1.5521944691280722 49.852164178823934 0 0 0
8423 2 1 4.126924617274125 8.863570440523635 44.036647101023945 0 0 0
8424 2 1 4.2103898288557415 10.163849915356426 44.84438413579951 0 0 0
8425 2 1 5.602215933591427 10.131551163919696 45.47408060402364 0 0 0
8426 2 1 5.625827502525358 11.265620529502435 46.52059531441949 0 0 0
8427 2 1 6.977077801858496 11.475924182257545 47.09980121301319 0 0 0
8428 2 1 7.102714105703688 12.601526514671983 48.18342535623343 0 0 0
8429 2 1 8.535896469999804 12.950937260221608 48.60499082173196 0 0 0
8430 2 1 8.558011538851577 13.829270088589583 49.8386238169429 0 0 0
8431 2 1 9.993136375468243 14.140662487986011 50.16690896678428 0 0 0
8432 2 1 10.16936291729361 15.208924113526932 51.23622891040641 0 0 0
310 6 1 16.64397498699313 4.95157896657374 48.23446749533493 0 0 0
1053 8 1 3.1248665075352733 6.1901279637014355 38.51828310600917 0 0 0
9285 61 1 5.2889690762494785 24.455815626979714 50.781147587175006 0 0 0
9497 51 1 1.3376166424395555 20.932315226572697 42.17155266534027 0 0 0
9286 61 1 6.684176108498018 24.706497913050093 51.23773298593106 0 0 0
9504 51 1 7.0800750716484115 24.776505142530304 47.24238083748242 0 0 0
3648 22 1 15.280737560268223 14.668018905684947 40.6264873107164 0 0 0
4968 33 1 2.978703219331043 4.1994121254358365 52.86034535951623 0 0 0
8798 57 1 1.2917541177236975 12.137393441211346 41.51127142014014 1 0 0
600 57 1 4.142658468155926 0.9455922300661863 38.849902140644964 0 0 0
4413 28 1 16.152920904485566 24.898995850688053 41.843669552984444 0 0 0
2820 9 1 18.307593748614824 7.398592635370461 45.30580869488551 0 0 0
9503 51 1 5.755764037385938 24.75017917865451 46.648107002277534 0 0 0
4643 22 1 17.451134911272305 25.741006429307408 38.92558212983782 0 0 0
1136 9 1 18.06447086892471 12.854706214976956 48.53931002129742 0 0 0
8806 57 1 7.182111414471411 16.964384167892614 47.95439216249786 0 0 0
8807 57 1 8.66450812008363 17.10059229591742 48.21100385381985 0 0 0
8808 57 1 8.677944418455892 18.25719709658707 49.1790802688721 0 0 0
8809 57 1 9.963918527979999 18.321630412182127 50.08000421691725 0 0 0
8810 57 1 10.332907223822314 19.579452039931443 50.683258655929706 0 0 0
1455 10 1 8.693707721869659 14.53474483949771 39.01529949336259 0 0 1
8893 44 1 0.7796734675275923 16.377945998537367 46.573754999698735 0 0 0
4414 28 1 16.857907297480992 24.66424154543611 43.123396884649644 0 0 0
7914 31 1 11.560754079740532 10.208332134424776 51.635501806110156 0 0 0
9507 51 1 8.991407555711202 0.7023229139326835 49.38780457760163 0 1 0
7693 50 1 6.404373936430988 6.811908244492272 52.04687527399348 0 0 0
3198 19 1 16.776179397514642 11.469842319446514 42.62395274293338 0 0 0
8800 57 1 2.4768283346151914 13.453151024540025 43.242669352150465 1 0 0
8128 39 1 5.398643796904272 11.261514392477483 51.421522538510516 0 0 0
4408 28 1 12.456684137419343 21.214559108564803 38.343632339096146 0 0 0
8513 60 1 6.799614661716783 16.06469083197886 51.58498700121914 0 0 0
8805 57 1 6.8834066926105235 16.251325008584907 46.600699714878495 0 0 0