LAMMPS data file via write_data, version 23 Jun 2022, timestep = 1000000

9706 atoms
2 atom types
9690 bonds
3 bond types
9674 angles
3 angle types
9658 dihedrals
3 dihedral types

0 36.89775039 xlo xhi
0 26.67072 ylo yhi
0 236.7516044 zlo zhi
0 7.448720975 0 xy xz yz

Masses

1 14
2 15

Pair Coeffs # lj/cut/omp

1 0.0914 3.95
2 0.1947 3.75

Bond Coeffs # harmonic/omp

1 449.5 1.53
2 449.5 1.53
3 449.5 1.53

Angle Coeffs # harmonic/omp

1 62.0967 114
2 62.0967 114
3 62.0967 114

Dihedral Coeffs # opls/omp

1 1.411 -0.271 3.145 0
2 1.411 -0.271 3.145 0
3 1.411 -0.271 3.145 0

Atoms # molecular

1 1 1 6.141020368118965 0.012868948325817586 9.25120340294493 0 0 0
2 1 1 7.2402272375566055 0.5013070661691814 10.19081807750912 0 0 0
3 1 1 7.267191815258665 26.434642439698294 11.574003352383262 0 -1 0
4 1 1 8.12788037920088 0.6560518117338129 12.436613408969132 0 0 0
5 1 1 8.309651273269669 0.050260396942120276 13.806051785011029 0 0 0
6 1 1 9.527136581128149 0.6668774044833227 14.534491833122951 0 0 0
7 1 1 9.41923636565177 0.3420722639628294 16.00090862188693 0 0 0
8 1 1 10.700433875073482 0.8492036715410307 16.6900539917475 0 0 0
9 1 1 10.960178957658625 0.42763906445631067 18.12510413168529 0 0 0
10 1 1 12.186711359660297 1.0160893524345962 18.743953608214564 0 0 0
11 1 1 12.305486473625923 0.6334956061901339 20.236610344213638 0 0 0
1047 7 1 3.0701186304442656 8.87249355258043 1.1963386864375212 0 0 1
7807 34 1 1.8758915857186678 4.8580644090325595 17.296077473902965 0 0 0
173 3 1 16.968890872577273 3.239476690521529 20.925305485932245 0 0 0
1048 15 1 3.0322435014009788 9.059309708749712 2.7362559565568527 0 0 0
8341 38 1 0.6834094294584757 10.827588254817458 5.2871847740579385 0 0 0
2431 11 1 16.115818014815737 0.8690110320625952 8.560059565949423 0 0 0
74 1 1 2.894419165897602 26.639613031519232 2.387667237275272 0 -1 0
75 1 1 4.127468332112182 0.439995644346629 3.153304428991693 0 0 0
76 1 1 4.134206046706666 26.55328817444656 4.604353955947284 0 -1 0
77 1 1 4.972506099197981 0.5774980380905478 5.634564176328234 0 0 0
78 1 1 5.0899209437144775 26.48455227075426 6.905060707978835 0 -1 0
79 1 1 6.201447716105743 0.48015920523125893 7.774977065922712 0 0 0
159 3 1 8.57052127914098 2.850416534147887 5.306774047997344 0 0 0
160 3 1 9.83988467629149 2.342293187438829 5.9955954690268065 0 0 0
161 3 1 9.78208923451327 2.306469015931201 7.507067201151413 0 0 0
162 3 1 11.062543912566642 2.361634877398368 8.29972787199008 0 0 0
163 3 1 10.932589617523465 2.4218251406998785 9.775088938863052 0 0 0
164 3 1 12.31408334137729 2.53551032467906 10.397173839303077 0 0 0
165 3 1 12.048954693353178 2.344080129697106 11.893609386162044 0 0 0
166 3 1 13.319973833560526 2.2522408926026594 12.727428237622739 0 0 0
167 3 1 13.169669135333747 2.1667677807484584 14.262735784021567 0 0 0
168 3 1 14.488887125226547 2.269945581372885 15.038614174258516 0 0 0
169 3 1 14.408084021252096 2.866016691069317 16.413991531099786 0 0 0
8109 55 1 10.333928155311607 8.227335172037936 23.04520910917071 0 0 0
1495 28 1 1.6798648922352273 13.12176999542703 0.46096860118733873 0 0 1
1497 9 1 2.9976237862905037 12.864240455050448 2.61214149187551 0 0 0
3948 25 1 16.01204054636196 14.79733189368416 0.7358304403631467 0 0 1
380 3 1 7.432357282706835 2.591149478476014 1.6399873385302841 0 0 0
381 3 1 7.25409998324086 2.7614489878857547 3.0938421057022722 0 0 0
382 3 1 8.629953561628998 2.8691644521927895 3.770353059108519 0 0 0
383 55 1 6.432428400715394 4.250978997445814 9.10553746843703 0 0 0
384 55 1 7.783837096562276 4.514917596664992 9.803248809296708 0 0 0
385 55 1 7.690433408236368 4.498807990278855 11.356220413022397 0 0 0
386 55 1 9.043244283360307 4.655250895958381 12.114746857691621 0 0 0
387 55 1 8.919940957938632 4.81789697179041 13.626618419074918 0 0 0
388 55 1 10.291948821383789 5.105910429489953 14.27715155764844 0 0 0
389 55 1 10.221294696339537 5.20994399000107 15.824797144722709 0 0 0
390 55 1 11.570647212940477 5.417540715433507 16.520788227753787 0 0 0
391 55 1 11.411872187888408 5.505783809180666 18.028687245366267 0 0 0
392 55 1 12.549853841148241 6.040443178974973 18.89435535869101 0 0 0
393 55 1 12.370780064373015 5.887254170507914 20.42547326931767 0 0 0
394 55 1 13.567251942094478 6.386559077989077 21.24136873207994 0 0 0
3121 45 1 15.967764304252158 6.327437651862978 0.8354324746462922 0 0 1
2042 14 1 17.49231530281424 20.840171868840873 19.52528279017167 0 0 0
7359 16 1 1.1777197646920339 0.296795470431299 17.71920712478176 0 0 0
9163 63 1 0.707152747100304 20.336336546507432 6.7226486748569565 1 0 1
2183 15 1 2.845475360301695 21.871077769221834 1.550494125924166 0 0 0
4630 31 1 17.106648783128982 24.49487484556089 2.0896403508556007 0 0 0
2123 15 1 13.520416972869308 23.150949447285953 23.191355451159424 0 0 0
3122 45 1 17.233088658492708 6.615281294497395 1.514747044812868 0 0 1
604 55 1 4.978101560698454 5.257685113114629 5.506133233749357 0 0 0
605 55 1 5.057706171245994 4.563073252670586 6.89246190646378 0 0 0
606 55 1 6.264568081810331 4.964739099955116 7.738813652153749 0 0 0
607 51 1 8.707870518863892 6.796480971208553 4.507817643300089 0 0 0
608 51 1 10.036526981130338 6.75436367596191 5.250642318170445 0 0 0
609 51 1 9.828314655152504 6.724326054162627 6.7631516263609655 0 0 0
610 51 1 11.140384609450054 6.725490560256051 7.511665840701965 0 0 0
611 51 1 11.072572288746867 6.600291134012581 9.044701341307992 0 0 0
612 51 1 12.421430832382276 6.612651106491572 9.798647769061464 0 0 0
613 51 1 12.170300424262809 6.535354795129161 11.275581329946391 0 0 0
614 51 1 13.405357170164576 6.917411408808873 12.034472312000743 0 0 0
615 51 1 13.534683197453427 6.902497047117298 13.5169037790271 0 0 0
616 51 1 14.918592454264166 7.016043342248035 14.096466751928588 0 0 0
617 51 1 14.838577905760726 7.091762037774854 15.626132079740728 0 0 0
1292 9 1 15.275430054175677 14.269183574197129 23.54939736135024 0 0 0
158 2 1 2.005451384767782 26.117841925561446 0.010191967356717862 0 -1 1
9645 3 1 8.52578206792541 25.424684027853697 20.83011728844098 0 0 0
3283 23 1 17.240843168059683 11.153406211931651 3.6606443152826302 0 0 0
3723 27 1 12.168123108204291 13.16528526560208 1.9508544310072347 0 0 1
7592 51 1 10.649971597481878 3.0836360241025225 23.263080794380596 0 0 0
830 51 1 8.99046096892881 6.675343600884788 3.038028155827934 0 0 0
831 15 1 7.809035001104545 9.586551965969887 10.121647581169226 0 0 0
832 15 1 7.786617990679924 9.648156730999853 11.652450127995431 0 0 0
833 15 1 9.11369770394648 9.216335689715503 12.32970955344335 0 0 0
834 15 1 9.168294749219317 9.679220811768255 13.839359187547357 0 0 0
835 15 1 10.459401412794437 9.416621695328939 14.597252905387533 0 0 0
836 15 1 10.452844156911981 10.085874105303944 15.969935488324666 0 0 0
837 15 1 11.666648283270593 9.829360545833765 16.78230914297913 0 0 0
838 15 1 11.626991079764895 10.31688840694914 18.246072476649015 0 0 0
839 15 1 12.909199381438404 10.012355380250833 19.013954443116774 0 0 0
840 15 1 12.793114455154301 10.183524468404583 20.518622174879354 0 0 0
841 15 1 14.0642746496809 10.308382584256023 21.29507598698127 0 0 0
8578 41 1 4.206415840479426 14.104315599724924 22.298003458569994 0 0 0
175 3 1 18.228783930355856 3.291107526619693 23.108473900674582 0 0 0
2182 15 1 1.531539565919959 22.30423235607627 1.015799476496322 0 0 0
1722 10 1 7.672442671660102 15.708668335005973 1.908577383481434 0 0 0
2814 4 1 16.0484788931183 5.290128626004229 7.931369990572265 0 0 0
619 51 1 15.929253202210095 7.529970462465921 17.97142979042363 0 0 0
1049 15 1 4.218353265353236 8.755572164972275 3.480440849364479 0 0 0
1050 15 1 3.880019121022906 8.980354490664343 4.934761790665134 0 0 0
1051 15 1 5.209071392333504 8.9401821569268 5.7976354064781095 0 0 0
1052 15 1 5.044761821758422 9.243895961899979 7.320685512029513 0 0 0
1053 15 1 6.425841826320637 9.308582223853803 7.936320411654664 0 0 0
1054 15 1 6.490283987464629 9.779498721981637 9.389243754083092 0 0 0
1055 8 1 10.094323912312932 11.37242684733015 7.343020256398122 0 0 0
1056 8 1 11.408691490857963 11.055296808658243 8.044280099218637 0 0 0
1057 8 1 11.269590116187345 11.140480571042183 9.611744906533461 0 0 0
1058 8 1 12.646564912758183 11.03619905032956 10.273932906446088 0 0 0
1059 8 1 12.805313892970702 11.200215770663899 11.77810454398591 0 0 0
1060 8 1 14.233597709158625 11.274154613211248 12.403163901611583 0 0 0
1061 8 1 14.211953280199136 11.866133674226468 13.831929729757078 0 0 0
1062 8 1 15.566359060843226 11.783737766423336 14.533947257204648 0 0 0
1063 8 1 15.624851417080533 12.332643310029162 15.931870229782517 0 0 0
1064 8 1 16.620749575518705 11.694459278739162 16.882266659063873 0 0 0
1065 8 1 16.522139207689364 12.250347385461906 18.284247363723775 0 0 0
4174 42 1 12.12239029366959 17.86262033759995 1.4191655643953276 0 0 0
1066 8 1 17.524639875699357 11.648110216109206 19.23059759815145 0 0 0
9642 3 1 5.953522389120655 25.432102744522133 17.97697827174372 0 0 0
1275 8 1 7.716787949250075 11.685107592817248 3.004250375768934 0 0 0
1276 8 1 9.088787375782394 11.33364945796499 3.5625137789772388 0 0 0
1277 8 1 8.950287907479252 11.392719405016004 5.089394856567715 0 0 0
1278 8 1 10.117664999831662 10.794428937246586 5.9035370212887575 0 0 0
1279 9 1 6.270461428352658 13.907529045850275 9.384145393983877 0 0 0
1280 9 1 7.551860473293861 13.710800845919406 10.154504011573346 0 0 0
1281 9 1 7.386336669777028 13.862196573099453 11.640730807774851 0 0 0
1282 9 1 8.754273521399226 13.660017642573628 12.313778475262767 0 0 0
1283 9 1 8.749183920100245 13.59407296735963 13.855149244208167 0 0 0
1284 9 1 10.169995714408712 13.719369258877098 14.331018600181299 0 0 0
1285 9 1 10.27459608431966 13.661654980211342 15.861951389118142 0 0 0
1286 9 1 11.65174180901687 13.761680448686684 16.56505776054232 0 0 0
1287 9 1 11.611814459902172 13.96075535021411 18.077923219723996 0 0 0
1288 9 1 12.924690988699862 14.031699554834123 18.878274656773915 0 0 0
1289 9 1 12.78771453969989 14.21078439203017 20.408188561798276 0 0 0
1290 9 1 14.031654696056883 14.227816033618948 21.303378583016055 0 0 0
621 51 1 17.253177707428012 7.275033221520321 20.120208806269204 0 0 0
2819 4 1 18.298157410632573 4.783194605130913 13.913329523847766 0 0 0
9252 64 1 5.019671340653426 19.83822626757194 14.424336748444487 0 0 0
4182 61 1 17.93272307135426 19.873769964920992 2.5606868538916756 0 0 0
4180 61 1 16.63385650624802 19.68525481568219 0.3758154467837594 0 0 0
827 51 1 6.346808182960935 6.502517457839498 0.26337133760284875 0 0 0
1498 9 1 4.135188182001148 13.305308824226264 3.4973297281274185 0 0 0
1499 9 1 3.7909381200321572 13.253834777650532 4.999894587930057 0 0 0
1500 9 1 5.051847196634118 13.51803010167489 5.820315337364881 0 0 0
1501 9 1 4.961655233095922 13.561541432077838 7.349885184919309 0 0 0
1502 9 1 6.321813929791461 13.442312724802807 7.992489541279164 0 0 0
1503 10 1 10.1753219443735 15.497418114833167 7.645538564010346 0 0 0
1504 10 1 11.406905892727634 15.78520478329983 8.483004688514374 0 0 0
1505 10 1 11.328624523905388 15.420919219743746 9.928355518241236 0 0 0
1506 10 1 12.547043014496394 15.938338230140072 10.678857424323395 0 0 0
1507 10 1 12.561657094275015 15.78780141239661 12.214150591780504 0 0 0
1508 10 1 13.852687915344609 16.28121954367977 12.944496258650554 0 0 0
1509 10 1 13.84078035761843 16.050906266756993 14.434555244928385 0 0 0
1510 10 1 15.188310113985377 16.106938734694005 15.121762579803072 0 0 0
1511 10 1 15.228107311702647 16.106762464276837 16.641097422379104 0 0 0
1512 10 1 16.619027776701326 16.262337880317723 17.177431798267744 0 0 0
1513 10 1 16.548346476883644 16.449258458445637 18.696018595584455 0 0 0
9639 3 1 4.7593672661406465 24.880699095869335 14.228917675291541 0 0 0
9638 3 1 3.447741371761056 24.96219871672774 13.443127411837224 0 0 0
7577 51 1 0.4175253197784228 1.9726853239915203 6.857192853600263 0 0 0
1723 10 1 7.610913633689484 15.828970543069058 3.40281271428807 0 0 0
1724 10 1 9.046086439853633 15.899011007053586 3.996380012719143 0 0 0
1725 10 1 9.000965093055727 15.705006217457518 5.507522749444219 0 0 0
1726 10 1 10.333607862564925 15.728460732822251 6.182012341199878 0 0 0
1727 8 1 5.156962521709158 17.49596137422268 7.765618234421427 0 0 0
1728 8 1 6.412157517281665 17.735174877390225 8.573150791627876 0 0 0
1729 8 1 6.439507620837776 17.476011931113398 10.040098443538163 0 0 0
1730 8 1 7.699198492018226 17.950599970140253 10.706041845288636 0 0 0
1731 8 1 7.657271563152065 17.803115001918833 12.199023783309253 0 0 0
1732 8 1 8.781651367257666 18.500720305191663 12.992534787467905 0 0 0
1733 8 1 9.121703937390802 17.870026097180297 14.369959621153873 0 0 0
1734 8 1 10.299301372455218 18.375835618625242 15.17641115051408 0 0 0
1735 8 1 10.564142233392047 17.720104531086722 16.55090655042598 0 0 0
1736 8 1 11.594777617957401 18.553096510909505 17.30048626921304 0 0 0
1737 8 1 11.918879830551644 17.986864247173983 18.727790566547448 0 0 0
1738 8 1 12.99488699699309 18.705299952484378 19.443679855559225 0 0 0
12 1 1 13.62744165042448 1.0740310216144788 20.884263324884397 0 0 0
1496 9 1 3.0925947835926215 13.184849349173959 1.0942318299011284 0 0 0
9641 3 1 5.991587283197208 24.99550828540267 16.488891967056947 0 0 0
9637 3 1 3.6539439894043513 24.877685857410892 11.951621895582942 0 0 0
4409 30 1 13.61056423914363 22.456414198486016 5.9531603572461576 0 0 0
8861 61 1 0.3400170581896833 14.87685652178143 5.610770158764536 0 0 0
600 55 1 2.8273560801212247 5.001160112396588 0.8220472821903759 0 0 0
1947 8 1 2.9954679034735827 17.514756942837522 3.0936507238205397 0 0 0
1948 8 1 4.337141268512978 17.611349203061735 3.8491454474127393 0 0 0
1949 8 1 4.160517979967793 17.448522574839537 5.3671883420769975 0 0 0
1950 8 1 5.405383013632834 17.619148070514008 6.229142237792042 0 0 0
2030 14 1 10.446835537875595 19.99326266521656 6.114326847012778 0 0 0
2031 14 1 10.322011501962148 19.899299426262022 7.61008057043503 0 0 0
2032 14 1 11.701878558853197 19.730793322982443 8.31460457397075 0 0 0
2033 14 1 11.600215902652927 19.78876733480477 9.850241485105347 0 0 0
2034 14 1 12.898362211131221 19.877227603536408 10.577013808826917 0 0 0
2035 14 1 12.644758922795566 19.97313638035467 12.135577482556327 0 0 0
2036 14 1 13.944811698418492 20.406769797414665 12.87622551227099 0 0 0
2037 14 1 13.721014996533745 20.651479288347655 14.322641939324711 0 0 0
2038 14 1 15.054643042991009 20.605398236092388 15.104940584026114 0 0 0
2039 14 1 14.962600626156702 20.978116975481353 16.529710245423804 0 0 0
2040 14 1 16.297415693158854 20.77563207314221 17.24365011166172 0 0 0
2122 15 1 13.58360752611074 23.440923624444615 21.688849761146674 0 0 0
8575 41 1 3.002537980531129 13.64402977933453 18.68335898000462 0 0 0
2815 4 1 16.027779294556282 4.646931704611109 9.345452391092783 0 0 0
2105 14 1 8.153523260746413 20.038719988357002 1.560882538364272 0 0 0
2106 14 1 7.981332435682519 19.619868981387505 3.0384468903156066 0 0 0
2107 14 1 9.218654449611531 19.923993193958697 3.9680020582483926 0 0 0
2108 14 1 9.035037972723158 19.935848918660806 5.502229058068648 0 0 0
2109 15 1 5.768218769716301 22.771390055438832 7.154174189638147 0 0 0
2110 15 1 6.7452287992063376 22.260988006953234 8.200678585089404 0 0 0
2111 15 1 6.594094740602271 22.680010256721374 9.686035286571563 0 0 0
2112 15 1 7.655202697206964 21.997307279747535 10.562156207883104 0 0 0
2113 15 1 7.588071747303912 22.313775921909347 11.999952320186592 0 0 0
2114 15 1 8.908581663668864 22.724680558668336 12.641638940037247 0 0 0
2115 15 1 8.755229170490582 22.972414925752485 14.175261495672876 0 0 0
2116 15 1 10.065488446806555 23.207005616503686 14.8229372982946 0 0 0
2117 15 1 10.016781142098525 23.033910196605397 16.37226014147202 0 0 0
2118 15 1 11.24157988288985 23.45798519168399 17.182459975879514 0 0 0
2119 15 1 11.241890442633611 23.023660205854075 18.645058109456684 0 0 0
2120 15 1 12.484013228795899 23.317676878272078 19.396595252714825 0 0 0
601 55 1 2.7803090253076057 4.568865188764513 2.318394368007467 0 0 0
3725 27 1 13.67747192936375 13.43677064758732 4.017149990129542 0 0 1
8107 55 1 9.084997036677617 7.977794784151954 20.825639812496934 0 0 0
623 51 1 18.38816315011569 7.290018817039282 22.446957746921118 0 0 0
2807 4 1 10.614745772174397 4.04832554703693 0.5938395170000977 0 0 0
2044 14 1 18.61976202155221 20.777716339527682 21.896980026007125 0 0 0
9646 3 1 8.72120344656054 26.031683523358048 22.231478791700763 0 0 0
2184 15 1 3.0932082800071514 22.218032281840404 3.0660632225914215 0 0 0
2185 15 1 4.476312755732199 21.7977889343984 3.6388076328827372 0 0 0
2186 15 1 4.722111622968574 22.601480206449445 4.905825265072123 0 0 0
2187 15 1 5.74420335795072 22.00923710143364 5.866476092793519 0 0 0
2346 16 1 12.64841024753187 25.052618722011825 12.606734655173813 0 0 0
2347 16 1 13.958653165694647 25.112567224273366 13.333885007599658 0 0 0
2348 16 1 13.794981332318471 25.219467936114622 14.850638394011595 0 0 0
2349 16 1 15.01836746391088 24.835290104533666 15.596620543583683 0 0 0
2350 16 1 14.824609141899348 24.864077384731196 17.09092490832375 0 0 0
2351 16 1 16.210492632820188 24.951652565055962 17.648218707270754 0 0 0
2352 16 1 16.210152997943457 25.407047227284473 19.095313581579564 0 0 0
2353 16 1 17.598585882474797 25.351038622032892 19.69003589105115 0 0 0
2354 16 1 17.611935013052094 25.446759470355243 21.226067852695955 0 0 0
2045 14 1 18.38273192902336 20.708743933739946 23.40945866382824 0 0 0
395 55 1 13.529784397968138 5.912220344633945 22.71694187700924 0 0 0
1721 52 1 6.366148051161691 15.622676883090962 1.0685878839532725 0 0 1
1273 24 1 7.256371405130191 10.521628367684416 0.7956965031058812 0 0 1
3508 24 1 17.68667093013443 14.05414980590003 12.0596828506802 0 0 0
2421 16 1 10.134351368526227 24.55322760258846 8.090501654987392 0 0 0
2422 16 1 11.48898065347005 24.553973158619282 8.860363460404 0 0 0
2423 16 1 11.34653157333223 24.75552171104245 10.367940738426821 0 0 0
2424 16 1 12.689648523387289 25.053561670179956 11.073835460352097 0 0 0
2425 11 1 12.306874182587494 0.1311522001543382 2.0047160300064744 0 0 0
2426 11 1 12.314139018126216 26.482010943586626 3.5279309033452435 0 -1 0
2427 11 1 13.641821596982446 0.139302031966989 4.202012811275592 0 0 0
2428 11 1 13.536331014252976 0.018255554910716086 5.681145186370563 0 0 0
2429 11 1 14.806143646475645 0.48027194116881805 6.261321569801614 0 0 0
2430 11 1 14.88145490970041 0.42961316166853813 7.7938955847354965 0 0 0
9354 10 1 3.8789386126949688 22.889712309025974 21.985462720540983 0 0 0
2503 11 1 10.990167198618611 0.03003553765518346 1.2298830261714673 0 0 0
8579 41 1 5.492549448179282 13.891782767348037 23.050222731874943 0 0 0
3199 20 1 11.185960765969932 8.716590172031163 0.6375936268084388 0 0 0
2583 19 1 17.145791054391967 1.928060676533548 3.5765295553042784 0 0 0
3962 42 1 18.783223603717236 19.002427857302536 14.894814113654668 0 0 0
172 3 1 17.144058551138112 3.044525304527152 19.365968709254748 0 0 0
3950 25 1 17.206796675599122 14.978385505483718 2.928564785568931 0 0 1
4417 30 1 18.433223783168348 23.41544127937949 14.80366343297846 0 0 0
2808 4 1 11.910161046015663 4.0250719785177465 1.3955983165806671 0 0 0
2809 4 1 11.915675002004352 3.8265316280215056 2.968861192907596 0 0 0
2810 4 1 13.267057617694809 4.164666435022852 3.6895598454370044 0 0 0
2811 4 1 13.245770106944192 4.109445533259748 5.213130417045665 0 0 0
2812 4 1 14.50211096415934 4.7553652497570145 5.7768623082620465 0 0 0
2813 4 1 14.66415536711224 4.94046894921835 7.333398799465901 0 0 0
2104 14 1 6.904428900474065 19.671648713484085 0.6901876829441835 0 0 0
8952 14 1 2.938646579938223 18.30493636854174 18.216265920636452 0 0 0
3284 23 1 18.52249434998343 10.712079570456885 4.406115078884539 0 0 0
2805 18 1 16.181459962608162 1.9814173671167468 1.2994425196087163 0 0 1
618 51 1 16.06202064676591 7.523537101664437 16.446521203790923 0 0 0
4413 30 1 16.248534647917822 23.1803488060657 10.107796275918663 0 0 0
9257 64 1 7.970030929636467 21.11076957157625 19.944544481744234 0 0 0
3123 20 1 13.60837763441327 8.686786050417556 3.836387290125341 0 0 0
3124 20 1 13.52768992383833 8.867446425643172 5.382258357763535 0 0 0
3125 20 1 14.892732747450344 8.57771361151754 6.042675355388602 0 0 0
3126 20 1 14.677733387627413 8.839583252399933 7.5822904137900276 0 0 0
3127 20 1 16.009806796005094 8.68794919415938 8.21026815760112 0 0 0
3128 20 1 15.912963115334215 9.096285973281107 9.701018732627132 0 0 0
2121 15 1 12.442423695037588 22.887487428173298 20.873854742293744 0 0 0
620 51 1 17.25098079796064 7.8485006250601135 18.648417034358538 0 0 0
9350 10 1 1.5012152053062484 22.300717971455324 17.406678930091907 0 0 0
3201 20 1 12.381622607041917 8.870888685783855 2.9185395066233255 0 0 0
4181 61 1 16.72481797345253 20.36264552325385 1.75621157271862 0 0 0
3949 25 1 16.880835482571133 15.683080231569846 1.619296162078642 0 0 1
9636 3 1 2.3763941198395484 25.022969263468177 11.15595372335544 0 0 0
7589 51 1 8.36721484520228 3.2065034979966835 20.096423934413615 0 0 0
3505 24 1 16.06796298175672 12.989578794915687 8.575144991925624 0 0 0
3506 24 1 16.414695840613344 13.81136653982084 9.82635717115173 0 0 0
3507 24 1 17.52566313941391 13.277945757015303 10.769014144291386 0 0 0
8950 14 1 1.4660256985693285 18.3642732132411 16.086152058296058 0 0 0
6237 41 1 0.7893426407429371 16.148807616029888 22.930791298094384 1 0 0
73 1 1 3.0390945590128386 0.10581756345374183 0.8711725280305079 0 0 0
9260 64 1 10.219477069992081 20.897950168736127 23.26063086961306 0 0 0
3722 27 1 10.867176648992102 13.509537385884563 1.1622856779904303 0 0 1
3727 24 1 15.107386415717112 13.313967701037178 6.195818796270466 0 0 0
3728 24 1 15.021247267907714 13.665477571536572 7.687295705417763 0 0 0
8576 41 1 3.0622595582474013 14.036676638397145 20.137396749497103 0 0 0
9249 64 1 3.09609670874272 20.63663683912698 11.287381828925149 1 0 0
9256 64 1 7.766530881513633 20.3617353620354 18.65899893821749 0 0 0
4407 30 1 12.625083714258661 22.333918347013675 3.521943222906032 0 0 0
3953 42 1 14.649444071039383 18.078407628516555 4.342202457492658 0 0 0
3954 42 1 14.293401316221642 17.993268816027303 5.8288386158367524 0 0 0
3955 42 1 15.479241637240401 17.68387421353428 6.719638735328616 0 0 0
3956 42 1 15.247004429602992 17.933538435510567 8.1558742109666 0 0 0
3957 42 1 16.556890030187013 17.571293763271807 8.924293749670646 0 0 0
3958 42 1 16.56734778558586 18.3726607149335 10.262315440986242 0 0 0
3951 25 1 17.99576481100321 15.832305031442948 3.949118321218492 0 0 1
8182 56 1 0.49950797929074886 9.319052928432724 15.823436743919402 0 0 0
4175 42 1 13.48540704640479 17.715966778811737 2.114401097758007 0 0 0
4176 42 1 13.424816143079669 18.23584708335514 3.5214841203718024 0 0 0
7364 16 1 4.852970809688589 0.7161218603112468 23.097163367873485 0 0 0
1515 10 1 17.63146847323381 16.444407035498536 20.89994743922405 0 0 0
2341 40 1 6.515592023991777 24.533730675262362 1.2245945188246428 0 0 1
4414 30 1 17.085653780775765 22.460787724341568 11.224984809023777 0 0 0
1945 8 1 1.7655646909871427 17.418682620188143 0.7158887536312424 0 0 0
828 51 1 7.708513580740477 6.528072542243451 0.8803908859098508 0 0 0
8877 61 1 10.192593500247975 16.260957484248205 23.452869648561464 0 0 0
3509 24 1 18.635221139549035 13.450580399938111 13.076138211641485 0 0 0
4405 30 1 11.56064366616357 22.451721313976645 1.2655128558923496 0 0 0
4406 30 1 12.745650490116647 21.92080340470733 2.012359754069905 0 0 0
4629 31 1 15.829739266958136 24.158090902568382 1.3287277828019899 0 0 0
9355 10 1 5.254361953067637 22.798790276957295 22.6707977264542 0 0 0
8355 38 1 8.86062283185923 11.645608216667839 21.27008423397342 0 0 0
8862 61 1 0.5363984320638305 15.6405187796575 6.878883629663649 0 0 0
4631 31 1 16.882621208776257 24.29835891292842 3.585772570940558 0 0 0
2043 14 1 17.35699104770754 20.71254537728285 21.070016058611493 0 0 0
8873 61 1 7.808459716358022 15.751474781055812 18.85590089962657 0 0 0
1069 8 1 18.646160394309184 12.160330967120144 22.866760612783917 0 0 0
9255 64 1 6.574313555745521 20.872818125557647 17.79093787467915 0 0 0
9254 64 1 6.320658243967336 20.078883132428903 16.50227335416713 0 0 0
14 1 1 14.918040555757859 1.048502919127673 23.11145055616222 0 0 0
1291 9 1 13.961373448876367 14.386667343993592 22.786605250909634 0 0 0
1067 8 1 17.233291828999416 11.923824764615992 20.724895738373693 0 0 0
8093 55 1 0.7098361080494053 6.439188771221484 5.2487443470851805 1 0 0
7358 16 1 1.3331298091458277 0.6481844396949582 16.1999434213213 0 0 0
3043 48 1 17.20954341351637 6.304367913049296 3.024064548984303 0 0 0
3724 27 1 12.240638244456322 13.459226725930927 3.456958903047346 0 0 1
4633 31 1 18.020933502340085 24.31034227449328 5.949388326944972 0 0 0
2343 40 1 7.685344347806704 24.850011757250055 3.4770063269275036 0 0 1
2432 11 1 16.044899013063603 0.666977776175028 10.087228404654848 0 0 0
8188 56 1 4.345268506853629 9.326811913973367 22.48120317717846 0 0 0
8876 61 1 9.304719154335233 16.91148834079093 22.415675001216528 0 0 0
3200 20 1 12.550434164846271 8.716807443718478 1.3349317191136294 0 0 0
3282 23 1 17.308305924616704 10.996090094008562 2.1328515368343206 0 0 0
8095 55 1 1.8702096230727583 6.293288604324655 7.55963955724517 0 0 0
1514 10 1 17.863806410270918 16.387525057195 19.391120300004754 0 0 0
8577 41 1 4.404041688137769 13.71596689990311 20.817828433486113 0 0 0
9634 3 1 1.200751898429104 24.91403433515421 8.884513636117081 0 0 0
379 3 1 6.103234209025023 2.7744442908130393 0.8830829637578916 0 0 0
3131 20 1 18.60638777883442 9.47792139395169 12.567654228477803 0 0 0
9251 64 1 4.0960561896378085 20.64276172672141 13.490791062816228 0 0 0
171 3 1 15.858782592833697 3.359525009277653 18.517341506209174 0 0 0
3959 42 1 17.73195687827004 18.034317621844757 11.252820198684395 0 0 0
9248 64 1 2.6914878328217253 19.7525491035271 10.117718011459239 1 0 0
8955 14 1 4.202814315667322 18.484454120869277 21.917535268860952 0 0 0
7806 34 1 1.7088562861622705 5.400866518884434 15.887957333666908 0 0 0
842 15 1 13.878086923751596 10.323540969152942 22.879431232091953 0 0 0
9259 64 1 9.084343488606885 21.233817780182672 22.211706390593964 0 0 0
9635 3 1 2.538481568700038 24.84250209528343 9.653988678845701 0 0 0
9253 64 1 5.3707078442942215 20.788487614544692 15.58919800015522 0 0 0
2356 16 1 18.891260451202285 25.76306837566941 23.40559339139992 0 0 0
3129 20 1 17.239895907873485 8.98862855021699 10.397130366101623 0 0 0
829 51 1 7.605723715279337 6.4798219671203166 2.4077276481050687 0 0 0
1740 8 1 13.92646484782147 18.809474359614864 21.856238151919495 0 0 0
7360 16 1 2.505416158093718 0.4634033909733261 18.413546187104178 0 0 0
7361 16 1 2.4827497303124404 0.3440945170029367 19.927309921893556 0 0 0
7362 16 1 3.717523149374898 0.7797054602463849 20.775090595233813 0 0 0
7363 16 1 3.66101708824592 0.28158357139042306 22.256143407990503 0 0 0
8353 38 1 7.710912510731205 11.562464599068047 18.96617641059426 0 0 0
8181 56 1 0.5371409501984861 8.644906865765181 14.464958230014691 0 0 0
1946 8 1 3.060318512041086 17.566484543370755 1.5593555286515361 0 0 0
4410 30 1 14.661338572592188 21.88953307496967 6.856910049909415 0 0 0
4408 30 1 13.708218783302335 21.922752657607457 4.4840707050184125 0 0 0
1068 8 1 18.51729078830842 11.555650855479907 21.486491609551813 0 0 0
9353 10 1 3.89948626088896 22.735220025613934 20.455119299108816 0 0 0
7578 51 1 1.7695844162737338 2.0995634557026523 7.538747962267079 0 0 0
7579 51 1 1.709988862588708 2.133028625636075 9.04593611694469 0 0 0
7580 51 1 3.0397693430328974 2.365987422926051 9.772026976315383 0 0 0
7581 51 1 2.957438484927858 2.3803526036512306 11.271182297826757 0 0 0
7582 51 1 4.2396636945964605 2.4302194089950895 12.145177826553782 0 0 0
7583 51 1 4.179029799291677 2.6798166137634913 13.704921152251677 0 0 0
7584 51 1 5.540448347645258 2.8357558503349853 14.34519685365651 0 0 0
7585 51 1 5.4302948897922825 2.677452258885749 15.83941180509618 0 0 0
7586 51 1 6.819556489779812 2.9935024489263307 16.43465569191033 0 0 0
7587 51 1 6.849692816520867 3.2031733234928406 17.980874169011763 0 0 0
7588 51 1 8.28043791129087 3.5641205744620734 18.615174098421456 0 0 0
9246 64 1 1.5163179313672634 19.562385289868413 7.75391161409978 1 0 0
2345 40 1 8.896107244528 24.97508156084467 5.874980927939794 0 0 1
8356 38 1 8.93740654172987 12.18280376305443 22.678561152333195 0 0 0
1739 8 1 13.36866358431326 17.927665327714195 20.720746025644182 0 0 0
2041 14 1 16.286952520331926 21.27143547932871 18.705473742078123 0 0 0
8108 55 1 9.085821214509007 7.703084545526589 22.31330380282818 0 0 0
4412 30 1 15.892066268054306 22.217672897495316 8.94581293239758 0 0 0
9247 64 1 2.0525229251657695 20.499475019346956 8.932784970196082 1 0 0
9633 3 1 1.359445104799556 24.748353840396177 7.3904411132346315 0 0 0
2816 4 1 17.291713817809534 4.830845739343238 10.167515730137879 0 0 0
7808 34 1 3.1295253554087363 5.26104414524798 18.10904399471912 0 0 0
7809 34 1 3.1148018179239605 4.97651208726818 19.591549665286898 0 0 0
7810 34 1 4.47354569208782 5.149656111422737 20.281381997076718 0 0 0
3130 20 1 17.283688564221126 9.323981886026527 11.883053901173186 0 0 0
2817 4 1 17.091990438363084 4.824172859525793 11.672741005390371 0 0 0
8874 61 1 7.915364836711934 16.450851806460882 20.18410044641226 0 0 0
7576 51 1 0.5587457599130488 2.179886571406509 5.3323601135482255 0 0 0
603 55 1 3.883452869460032 4.674774085078045 4.623244238014309 0 0 0
4416 30 1 18.245297121305654 22.607119128715603 13.520540174867556 0 0 0
8096 55 1 1.8226647903747932 6.266601729896789 9.043047603010187 0 0 0
8097 55 1 3.272232594297835 6.2533905175481435 9.573821826649587 0 0 0
8098 55 1 3.3867555579989355 6.619646486251407 11.09228512005318 0 0 0
8099 55 1 4.825001385834809 6.601986773380206 11.73941264684876 0 0 0
8100 55 1 4.689592226127697 6.955155045850108 13.201622896686901 0 0 0
8101 55 1 6.060282321940571 7.109430035735133 13.827243889826663 0 0 0
8102 55 1 5.995358014175975 6.7463664930378044 15.307182152083575 0 0 0