LAMMPS data file via write_data, version 29 Oct 2020, timestep = 32000000

10752 atoms
2 atom types
10752 bonds
3 bond types
10752 angles
3 angle types
10752 dihedrals
3 dihedral types

-1.4019591925125496e-01 3.1008115919238300e+01 xlo xhi
-1.2113307625790526e-01 2.6791853076229280e+01 ylo yhi
 5.0369198372687549e+00 2.7796244016214570e+02 zlo zhi

Masses

1 14
2 15

Pair Coeffs # lj/cut/omp

1 0.0914 3.95
2 0.1947 3.75

Bond Coeffs # harmonic/omp

1 449.5 1.53
2 449.5 1.53
3 449.5 1.53

Angle Coeffs # harmonic/omp

1 62.0967 114
2 62.0967 114
3 62.0967 114

Dihedral Coeffs # opls/omp

1 1.411 -0.271 3.145 0
2 1.411 -0.271 3.145 0
3 1.411 -0.271 3.145 0

Atoms # molecular

1            1            1      29.9335      6.07097      5.49253
2            1            1      30.1934      5.87992      7.02165
3            1            1      29.2161      6.51042      7.95373
4            1            1      29.4957      6.21628      9.42614
5            1            1      28.8398       7.1904      10.4323
6            1            1      29.1965      6.95071      11.9257
7            1            1      28.5426      7.93842      12.8944
8            1            1      28.8889      7.36558       14.262
9            1            1      28.2419      8.28222      15.3007
10            1            1      28.4506      7.91918      16.7441
11            1            1      27.9085       8.9687      17.7146
12            1            1      28.3101      8.71472      19.1591
13            1            1      27.5484      9.62712      20.0924
14            1            1      27.7607      9.36065      21.6215
15            1            1      27.0842      10.3225       22.582
16            1            1      27.6354      10.1447      24.0259
17            1            1      26.6863      10.9212       25.003
18            1            1      27.3374      11.3287      26.3088
19            1            1      26.5273      12.2732       27.151
20            1            1      26.9891      12.3724      28.5913
21            1            1      26.1238      13.0018      29.6923
22            1            1      26.6774      13.0581      31.0599
23            1            1      25.7856      13.7098      32.1124
24            1            1      26.3974      13.6378      33.5149
25            1            1      25.5083      14.1952      34.5916
26            1            1      26.0344      14.2204      36.0366
27            1            1      24.9668      14.8072      37.0086
28            1            1      25.5016      14.7431      38.4073
29            1            1      24.8928      15.7037      39.4541
30            1            1      25.3803      15.4376      40.8463
31            1            1      24.4636      16.1635      41.8266
32            1            1      24.9221      16.0938      43.2579
33            1            1      23.9465         16.6      44.2677
34            1            1        24.59       16.598      45.6813
35            1            1      23.6423      17.0337      46.7924
36            1            1      24.2234      17.0387      48.1838
37            1            1      23.3122       17.752      49.1663
38            1            1      23.7421      17.3173      50.5381
39            1            1      23.2714      18.1254      51.7399
40            1            1      23.6346      17.5454      53.0832
41            1            1       23.317      18.4957      54.2263
42            1            1       23.494      17.9217      55.5839
43            1            1      22.9917      18.8119       56.741
44            1            1      23.5147      18.3143      58.0837
45            1            1      23.0468      19.1297      59.3209
46            1            1      23.6453      18.4173      60.4881
47            1            1      22.9182      18.6352      61.8733
48            1            1      23.9679      18.3849      63.0162
49            1            1      23.4134      18.3289      64.4792
50            1            1      24.4656      17.9452      65.4684
51            1            1      23.9729      17.7276      66.8768
52            1            1       24.974      17.2122      67.9546
53            1            1      24.2986      17.0715      69.3241
54            1            1      25.3702      16.7598      70.3716
55            1            1      24.7782      16.7212      71.7844
56            1            1      25.7723      16.2738      72.8658
57            1            1      25.2131      16.3002      74.3216
58            1            1      26.1593       15.884      75.3991
59            1            1      25.4446      15.6173      76.7198
60            1            1      26.3557      15.1258      77.8694
61            1            1      25.6624      14.7382      79.2438
62            1            1      26.6807       14.338      80.3057
63            1            1      26.0933      14.0696      81.7373
64            1            1      27.1336      13.6558      82.7744
65            1            1      26.4045      13.4044      84.0784
66            1            1      27.3969      12.9452      85.1298
67            1            1      26.7412      12.7217       86.462
68            1            1      27.7208      12.0963      87.4118
69            1            1      27.2203      12.2104      88.8598
70            1            1      28.1793      11.4706      89.8297
71            1            1      27.7709      11.6319      91.3359
72            1            1      28.5115      10.7965      92.3362
73            1            1      27.8974      10.9393      93.7513
74            1            1      28.6821      10.2851      94.8508
75            1            1      28.0676      10.4351       96.206
76            1            1      28.8448       9.4469       96.993
77            1            1      28.5704      9.53491      98.5006
78            1            1      29.5343      8.71943      99.3741
79             1             1       28.9661       8.62334       100.774
80             1             1       29.7984        7.7443       101.667
81             1             1       29.2396       7.67995       103.053
82             1             1       30.1011       6.96853       104.123
83             1             1       29.6971       7.21062       105.573
84             1             1        30.584       6.56787       106.586
85             1             1       30.1015       6.69762       108.044
86             1             1     -0.268029       5.75775       108.994
87             1             1       30.6716       6.14747       110.489
88             1             1     -0.138655       4.97492       111.404
89             1             1     -0.097047       5.30784       112.935
90             1             1      0.204986       4.09946       113.805
91             1             1      0.380826       4.49244       115.322
92             1             1      0.576477       3.29176       116.204
93             1             1      0.535426       3.81148        117.65
94             1             1      0.774138       2.67798       118.652
95             1             1      0.787102       3.06676       120.148
96             1             1       1.09861       1.95199       121.091
97             1             1       0.97819       2.43975       122.574
98             1             1       1.67789       1.48689       123.554
99             1             1       1.29719       1.52184       125.029
100             1             1       2.12764      0.662088       125.937
101             1             1       1.56048      0.652651       127.373
102             1             1       2.59688      0.132547       128.336
103             1             1       2.07938     0.0539793        129.78
104             1             1       3.16292       26.4462       130.801
105             1             1       2.62057       26.3347       132.233
106             1             1       3.39443       25.5435       133.347
107             1             1       2.88836       25.6486         134.8
108             1             1       3.73233       25.0005       135.887
109             1             1       3.13353       24.9089       137.289
110             1             1       4.06021       24.3643       138.427
111             1             1       3.59511       24.3563       139.947
112             1             1       4.46357       23.4093       140.777
113             1             1         3.848       23.3204       142.183
114             1             1       4.76538       22.6583       143.216
115             1             1       4.32683       22.8821       144.659
116             1             1       5.34834       22.3514       145.671
117             1             1       4.67018        22.164       147.031
118             1             1        5.5073        21.668        148.15
119             1             1       4.71716       21.5621       149.507
120             1             1       5.45345       20.6958       150.503
121             1             1       4.95302       20.5469       151.949
122             1             1       5.92159       19.8614       152.944
123             1             1        5.4908       20.1033       154.374
124             1             1       6.14046       19.1138       155.304
125             1             1       5.73999       19.3706       156.725
126             1             1       6.66074       18.6001       157.659
127             1             1       6.41368       18.8038        159.13
128             1             1       7.12142       17.9117       160.127
129             1             1       6.88269       18.3568       161.598
130             1             1       7.28306       17.2075       162.554
131             1             1       7.15377       17.6173       163.998
132             1             1       7.66495       16.5473       164.924
133             1             1       7.42723       16.9075       166.406
134             1             1       7.97819       15.9029       167.377
135             1             1       7.79987       16.2125       168.877
136             1             1       8.38155       15.1383       169.701
137             1             1        8.1573       15.2164       171.204
138             1             1        8.9731       14.2343        172.09
139             1             1       8.94975       14.7964       173.531
140             1             1       9.68818       13.9364        174.57
141             1             1       9.21079       14.1397       176.014
142             1             1       10.0857       13.5057       177.165
143             1             1        9.4328       13.6202       178.543
144             1             1       10.2768       13.0592       179.689
145             1             1       9.84235       13.3324       181.075
146             1             1       10.6626       12.6832       182.175
147             1             1       10.0785       12.7472       183.595
148             1             1       11.0268       12.0409       184.582
149             1             1       10.4589       12.1526       185.955
150             1             1       11.3753       11.5762       187.031
151             1             1       10.7424       11.4391       188.402
152             1             1       11.6998       11.0865       189.561
153             1             1        10.872        11.011       190.868
154             1             1       11.6664       10.7138       192.073
155             1             1       11.0171       11.0907       193.347
156             1             1       11.7315       10.6272       194.638
157             1             1       10.9724       11.1232       195.881
158             1             1       11.7046       10.8778       197.221
159             1             1       10.9806       11.5061       198.416
160             1             1       11.4327       11.0783       199.793
161             1             1       10.6778        11.906       200.818
162             1             1       11.1248       11.5909       202.263
163             1             1       10.3646       12.2769       203.406
164             1             1       11.1621       12.2774       204.667
165             1             1       10.4701       12.9842       205.791
166             1             1       11.0621       12.9367       207.175
167             1             1       10.3564       13.7324       208.206
168             1             1       10.2589       13.0242       209.574
169             1             1       9.84452       14.0667       210.598
170             1             1       9.76592       13.5027       212.025
171             1             1       9.49718       14.6712       212.966
172             1             1       9.70203       14.2466       214.418
173             1             1       9.16245       15.3505       215.292
174             1             1       9.19343       14.9388        216.77
175             1             1       8.62575       16.0306        217.68
176             1             1       8.72393       15.6438       219.105
177             1             1       8.36201       16.8114       220.009
178             1             1       8.52802       16.4748       221.456
179             1             1       8.00278       17.5307       222.454
180             1             1        8.2569       17.0449       223.851
181             1             1       7.58205       18.0324       224.747
182             1             1       7.81616       17.8001       226.257
183             1             1       6.92421       18.5882       227.288
184             1             1       7.33891       18.3487       228.745
185             1             1       6.47554       19.1588        229.69
186             1             1       6.65948       18.9829       231.204
187             1             1         6.032       19.9082       232.294
188             1             1       5.97688       19.4143        233.76
189             1             1       5.64806       20.5358       234.786
190             1             1       5.67719       20.1555       236.266
191             1             1       5.14808       21.2723       237.174
192             1             1        5.3554       21.0137       238.657
193             1             1       4.65407       22.0366       239.538
194             1             1       4.94533       21.7695       240.997
195             1             1       4.10597       22.4669        242.05
196             1             1       4.43784       22.0278       243.473
197             1             1        4.0745       23.0987       244.484
198             1             1       4.21409       22.5901        245.91
199             1             1       3.62133        23.575       246.875
200             1             1       4.10819       23.5425       248.316
201             1             1       3.18831       24.4444       249.187
202             1             1       3.60743       24.4889       250.645
203             1             1       2.89112       25.4412       251.597
204             1             1       2.93944       25.0251       253.041
205             1             1       2.34754       26.0083       254.058
206             1             1       2.74434       25.7921       255.477
207             1             1       1.94461       26.6587       256.525
208             1             1       2.42478     -0.225139        258.01
209             1             1       1.66869      0.722468       258.906
210             1             1        1.9665      0.379665        260.36
211             1             1       1.18557       1.08881        261.45
212             1             1       1.51073      0.567933       262.876
213             1             1      0.826942       1.44812       263.947
214             1             1       1.36262        1.2816       265.384
215             1             1      0.606143       2.14905       266.383
216             1             1      0.865293        1.7892       267.838
217             1             1      0.349398        2.8021       268.793
218             1             1      0.506605       2.55381       270.291
219             1             1     0.0536008       3.62863       271.256
220             1             1       0.28647       3.47782       272.769
221             1             1       30.5648       4.30098       273.716
222             1             1       30.9133       4.07467       275.221
223             1             1       30.0947       5.04778       276.084
224             1             1       30.6346       5.00146       277.534
225             2             1       3.77862       6.50144       275.104
226             2             1       2.73771       6.83505       276.162
227             2             1       3.45858       6.98864       277.473
228             2             1       2.65033       7.51178       5.67712
229             2             1       3.12733       7.46141       7.09154
230             2             1       2.08468       7.98335       8.10687
231             2             1       2.60665       8.11936       9.57128
232             2             1       1.57155       8.77353       10.5085
233             2             1       1.95543       8.75461       11.9797
234             2             1        1.1584       9.71412       12.9077
235             2             1       1.51086       9.52313       14.3896
236             2             1      0.780101       10.4188        15.372
237             2             1      0.937288        10.015       16.8219
238             2             1      0.442028       11.0902       17.7801
239             2             1      0.645489       10.8913        19.287
240             2             1       0.15921       12.0223       20.1695
241             2             1      0.369208       11.7008       21.6371
242             2             1    0.00480725       12.8561       22.5802
243             2             1       0.21438       12.3846       24.0198
244             2             1       30.8298       13.3811       25.0994
245             2             1         31.25       13.0929       26.5594
246             2             1       30.5488       14.0253       27.5694
247             2             1       30.8919       13.8833       29.0527
248             2             1       30.2085       14.7937       30.0688
249             2             1       30.5975       14.5329       31.5327
250             2             1       29.7791       15.3671       32.5183
251             2             1       30.1874       15.2696       34.0026
252             2             1       29.5755       16.2828       34.9687
253             2             1       29.7936        15.896       36.4401
254             2             1       29.0332       16.7177       37.5032
255             2             1       29.4221       16.4661       38.9471
256             2             1       28.6818        17.393       39.8128
257             2             1       29.2862       17.5752       41.2023
258             2             1       28.4951       18.4956       42.1361
259             2             1       28.9983       18.0767       43.5636
260             2             1       27.8981       18.2683       44.6619
261             2             1       28.5014       18.1626       46.0825
262             2             1       27.5113        18.509        47.186
263             2             1       28.2382       18.5354       48.5373
264             2             1       27.2517        18.911       49.6139
265             2             1       27.8499       18.8191       51.0652
266             2             1       27.1499       19.6929       52.1025
267             2             1       27.7886       19.5095       53.5143
268             2             1       26.9923        20.308       54.5371
269             2             1       27.6131       20.0047       55.8636
270             2             1       26.8563       20.5599       57.0561
271             2             1       27.5778       20.0294       58.3134
272             2             1       26.7797       20.2074       59.5654
273             2             1       27.6239       19.8512       60.7501
274             2             1       27.0471       20.0287       62.0788
275             2             1       27.9882       19.5811       63.1818
276             2             1        27.763       20.0737       64.6197
277             2             1       28.7472       19.4521       65.6753
278             2             1       28.4499       20.0435       67.0731
279             2             1       28.9945        19.095        68.158
280             2             1       28.5988       19.4394       69.5777
281             2             1       29.1862        18.524       70.5856
282             2             1       28.7188        18.955       71.9621
283             2             1       29.5205       18.2207       73.0575
284             2             1       28.9857       18.4902       74.4646
285             2             1       29.8505       17.7355       75.4919
286             2             1       29.1666       17.3707       76.8255
287             2             1       30.1843       17.2739       77.9755
288             2             1       29.5711       16.8689       79.2538
289             2             1       30.5405       16.7385       80.4223
290             2             1       29.9028       15.9368        81.585
291             2             1       30.8815        15.757       82.7825
292             2             1        30.229       15.0248       83.9547
293             2             1     0.0220977       15.1067       85.2197
294             2             1       30.5839       14.5972       86.5723
295             2             1      0.376386       14.7018       87.7611
296             2             1        31.126       13.7432       88.8569
297             2             1      0.908771        13.766       90.0781
298             2             1      0.307651       12.9883       91.2079
299             2             1       1.32447       12.7762       92.3108
300             2             1      0.647094       12.3262       93.6156
301             2             1       1.58956       12.3958       94.8596
302             2             1       1.06343       11.5567       95.9953
303             2             1       2.03278       11.3568       97.2556
304             2             1       1.33718       10.8416       98.4742
305             2             1       2.34101       10.7807       99.5958
306             2             1        1.7177       10.2778       100.926
307             2             1        2.6219       10.1776       102.119
308             2             1       1.95036       9.82974       103.455
309             2             1       3.02051       9.70486       104.546
310             2             1        2.4194       9.26333       105.894
311             2             1       3.39126       8.98106       107.011
312             2             1       2.69797       8.24839        108.16
313             2             1       3.67518       8.16084       109.309
314             2             1       2.94275       7.54825       110.498
315             2             1       3.89883        7.5707       111.647
316             2             1       3.41742       6.63839       112.788
317             2             1       4.42294       6.60057       114.005
318             2             1       3.80106       6.06554       115.306
319             2             1       4.86302       5.72845       116.359
320             2             1       4.24679       5.11116       117.603
321             2             1       5.22796       4.83344       118.766
322             2             1       4.62045       4.15923       119.925
323             2             1       5.54576       3.97622       121.162
324             2             1       4.90329       3.60046       122.502
325             2             1       5.81921       3.20347       123.652
326             2             1        5.1471       2.93049       125.024
327             2             1       6.14777       2.85962       126.152
328             2             1       5.51833       2.59171       127.506
329             2             1       6.48488       2.14068       128.601
330             2             1       5.83272        1.7915       129.904
331             2             1       6.80683       1.28989       130.962
332             2             1       6.20281       1.29433       132.347
333             2             1       7.16674      0.751184       133.396
334             2             1       6.56496      0.412281       134.779
335             2             1       7.60852       26.6281       135.725
336             2             1        7.1493       26.6324       137.203
337             2             1       7.97131       25.8777       138.218
338             2             1       7.38894       25.8044       139.582
339             2             1        8.2944        25.308       140.688
340             2             1       7.55963       24.9987       141.957
341             2             1       8.50707       24.3685       143.053
342             2             1       8.07363       24.3241       144.495
343             2             1       8.92087       23.5936       145.524
344             2             1       8.49554        23.688       146.989
345             2             1       9.39315       22.9464       147.976
346             2             1        8.8756       22.8817       149.372
347             2             1       9.71262       22.1663       150.436
348             2             1       9.15443       22.3008       151.892
349             2             1       9.99735       21.5584       152.947
350             2             1       9.42986       21.5128       154.381
351             2             1       10.3933         20.95       155.409
352             2             1       9.78951       20.8296       156.791
353             2             1       10.8733       20.3726       157.775
354             2             1       10.3016       20.4429       159.169
355             2             1       11.1546       19.7692        160.21
356             2             1       10.7253       19.9225       161.636
357             2             1       11.5033       19.0892       162.663
358             2             1        10.853         19.03       164.049
359             2             1         11.84       18.4497       165.047
360             2             1       11.2618       18.3736       166.447
361             2             1       12.1474       17.7208       167.476
362             2             1       11.7788       18.0328       168.906
363             2             1       12.5298       17.2013        169.99
364             2             1        11.993       17.1788       171.389
365             2             1       12.7655       16.3736       172.374
366             2             1       12.3949       16.7379       173.847
367             2             1       13.1592       15.9196       174.894
368             2             1       12.9642       16.3068       176.357
369             2             1       13.5274       15.2125       177.274
370             2             1       13.2637       15.6017       178.739
371             2             1       13.7152       14.5707       179.755
372             2             1       13.7049       15.1447       181.192
373             2             1       14.5819       14.1854       182.046
374             2             1       14.2033       14.2962       183.524
375             2             1        15.134       13.5063       184.468
376             2             1       14.5008       13.6389       185.824
377             2             1       15.3561       12.8982       186.816
378             2             1       14.8002       13.1835       188.215
379             2             1       15.5247       12.5747       189.429
380             2             1       14.8332       12.8078       190.763
381             2             1       15.7015       12.3974       191.972
382             2             1       15.0505        12.865       193.234
383             2             1       15.8444       12.5566       194.484
384             2             1       15.0622       12.9163       195.771
385             2             1       15.7902       12.6099       197.128
386             2             1       14.8319       12.9175       198.248
387             2             1       15.5148       13.2165       199.643
388             2             1        14.641       13.5383       200.844
389             2             1       15.4981       13.6302       202.078
390             2             1       14.6677         13.86       203.414
391             2             1       15.3223       13.9335       204.776
392             2             1       14.4307       14.4872       205.889
393             2             1       15.0518       14.4286       207.278
394             2             1       14.0989        14.829       208.424
395             2             1       14.7554       15.0682       209.803
396             2             1       13.8158       15.5124       210.842
397             2             1         14.49       15.6635       212.243
398             2             1       13.6085       16.3183       213.289
399             2             1       14.1488       16.6205        214.65
400             2             1        13.136       17.2233       215.596
401             2             1       13.6099       17.1834       217.031
402             2             1       12.5335       17.6954        218.08