LAMMPS data file via write_data, version 23 Jun 2022, timestep = 11111117

9706 atoms
2 atom types
9690 bonds
3 bond types
9674 angles
3 angle types
9658 dihedrals
3 dihedral types

0 36.89775039 xlo xhi
0 26.67072 ylo yhi
29.028390809702174 207.72321359025995 zlo zhi
0 5.622128212995903 0 xy xz yz

Masses

1 14
2 15

Pair Coeffs # lj/cut/omp

1 0.0914 3.95
2 0.1947 3.75

Bond Coeffs # harmonic/omp

1 449.5 1.53
2 449.5 1.53
3 449.5 1.53

Angle Coeffs # harmonic/omp

1 62.0967 114
2 62.0967 114
3 62.0967 114

Dihedral Coeffs # opls/omp

1 1.411 -0.271 3.145 0
2 1.411 -0.271 3.145 0
3 1.411 -0.271 3.145 0

Atoms # molecular

1 6 1 10.719013725109075 8.183307097946976 37.216278124539436 0 0 0
2 6 1 10.215065780605203 7.35089037919694 38.39955765975347 0 0 0
3 6 1 11.306233291507079 7.159846594653842 39.42705374613749 0 0 0
4 6 1 11.144866130883223 5.965159266365953 40.331485112444405 0 0 0
5 6 1 12.470280015933096 5.685168401077781 41.14345750091043 0 0 0
6 6 1 12.238031726188034 4.80187083337186 42.236363628383835 0 0 0
7 6 1 13.474140918823709 4.583453012921234 43.11264743945799 0 0 0
8 6 1 13.196666662213827 3.347946341315883 43.99731097827194 0 0 0
9 6 1 14.36146386876318 3.0956136899205964 45.00431558391561 0 0 0
7744 52 1 0.44219684788181834 14.930359391458898 37.98373529459497 0 0 0
3930 27 1 15.188402916703117 24.67328581227548 29.959348738617905 0 0 0
3713 27 1 17.956968491394424 19.77070508266708 36.962702116514315 0 0 0
1386 10 1 18.080480706723407 18.71165257797375 44.94731452786212 0 0 0
9250 45 1 1.814159726751104 3.105425517158184 34.407715829804204 0 1 0
8283 55 1 7.048564730920283 19.987010632878537 37.213529721674846 0 0 0
216 2 1 3.007099021700371 9.44471927778525 30.504266548823303 0 0 1
1757 58 1 9.57300703486772 26.340588336976065 36.092949853365276 0 0 1
219 6 1 6.488991775969284 10.024417789486765 32.310596613428025 0 0 0
220 6 1 7.749801697427557 10.93906523188739 32.25262738751566 0 0 0
221 6 1 8.870171469255673 10.203384680262669 32.97295284735308 0 0 0
222 6 1 8.56869422711222 9.87992273783562 34.430067821326475 0 0 0
223 6 1 9.868629016894563 9.456795370756103 35.115442405541565 0 0 0
224 6 1 9.55047174158965 8.564075823543737 36.26381561748438 0 0 0
304 5 1 13.7573417527018 11.300789591473325 34.812573951034295 0 0 0
305 5 1 13.371959806090652 10.546945860036017 36.04482291734655 0 0 0
306 5 1 14.585839093831705 10.160253183203654 36.859805153856605 0 0 0
307 5 1 14.228934620360008 9.347198810897066 38.034847654063455 0 0 0
308 5 1 15.475523844552823 8.830937340953014 38.755638190027526 0 0 0
309 5 1 15.06798677936726 8.101953610976366 40.05244551720985 0 0 0
310 5 1 16.204939485781352 7.526817438081558 40.9612903684629 0 0 0
311 5 1 15.858669868381801 6.935985189787415 42.31276836347238 0 0 0
312 5 1 16.904898841604446 5.8853745429388935 42.85286961245189 0 0 0
313 5 1 16.602553529914363 5.438263807799548 44.2969756672325 0 0 0
314 5 1 17.90738477805286 5.071285609548041 44.88090960927775 0 0 0
2366 17 1 18.19047680514657 7.713207686516052 36.490784505056936 0 0 0
8962 56 1 4.889850951363837 24.20661394875447 41.690051466211976 0 0 0
8508 56 1 3.307639619838083 22.588133129224996 37.70494464381974 1 0 0
7754 52 1 6.738917309961083 8.454979091598235 45.48932535831787 0 0 0
383 5 1 11.504814540062961 12.756922053352335 31.925533274530114 0 0 0
384 5 1 12.766139027863574 12.374063896151858 32.60162752604233 0 0 0
385 5 1 12.57700960222416 11.870265721612457 34.073238109415335 0 0 0
386 4 1 8.89601702620683 15.002703202366932 32.321657020909996 0 0 0
387 4 1 8.464371246008977 13.976732397842623 33.39089964827228 0 0 0
388 4 1 9.43049560086751 14.134840513026097 34.584343691936674 0 0 0
389 4 1 9.17312746128446 13.036396431563476 35.55422412835893 0 0 0
390 4 1 10.308704821623484 12.952639656288929 36.580773995457115 0 0 0
391 4 1 10.108035971317888 11.88065817476908 37.60035305452911 0 0 0
392 4 1 11.199317719778799 11.911642727752893 38.739832485333814 0 0 0
393 4 1 10.770700470410274 10.985968840039947 39.92434035682626 0 0 0
394 4 1 12.062905154158269 10.704633498038122 40.755593432756356 0 0 0
395 4 1 11.789034564224567 9.596639395495165 41.84050624232884 0 0 0
396 4 1 12.879626994988172 9.21300371263139 42.68959962917234 0 0 0
397 4 1 12.672680104872848 8.23162786875058 43.87795061870802 0 0 0
398 4 1 13.757042562949012 7.920502344941456 44.752144097963146 0 0 0
3035 21 1 15.695541652483726 15.497357356267429 29.94222776782813 0 0 0
2586 17 1 16.387308971286657 10.07836435482968 32.39149860477944 0 0 0
4615 32 1 15.236969658203956 6.9218122889043725 29.802987851314644 0 1 0
8512 56 1 4.763148823375296 19.909320128571743 41.70490603184601 0 0 0
7425 49 1 3.027178517813484 8.847623239537873 37.841552095602886 0 0 0
7745 52 1 1.4692641682962184 14.337525267586454 37.060558765568764 0 0 0
606 4 1 4.433685584517666 13.603558607704871 31.104597078607675 0 0 0
607 4 1 5.384082620828314 14.74140728529773 31.1682884077847 0 0 0
608 4 1 6.56420777768956 14.639005690241222 32.13626572353462 0 0 0
609 4 1 7.656951155909069 15.619318048321366 31.887996026439474 0 0 0
689 5 1 12.830170250443182 16.86271929783425 32.29836685228131 0 0 0
690 5 1 12.380711650772549 16.16159678691895 33.688828853975785 0 0 0
691 5 1 13.550811055331778 15.50052408432743 34.30656668886601 0 0 0
692 5 1 13.144677853459285 14.937562300422561 35.67731064617 0 0 0
693 5 1 14.26492910327585 14.416187063921164 36.47465408981355 0 0 0
694 5 1 13.982399177511633 13.7477166359994 37.824239071528744 0 0 0
695 5 1 15.220580786930563 13.194151494580801 38.61447441271679 0 0 0
696 5 1 14.745361398512726 12.580033703670694 39.900764797516445 0 0 0
697 5 1 16.07730730459886 11.902833589373062 40.44522475859093 0 0 0
698 5 1 16.016695917253625 11.390900413742836 41.816104652232276 0 0 0
699 5 1 17.25051945790466 10.96544724016927 42.56885765170061 0 0 0
985 6 1 7.481322066159298 19.493594223798407 31.75251075245426 0 0 0
7209 36 1 0.7131119388385478 3.370011658983587 43.187728125067224 0 1 0
1754 58 1 8.665296913655341 1.8335732622371734 33.063727942014395 0 1 1
8510 56 1 4.057159010110019 21.205079170203867 39.74597397751138 0 0 0
9496 4 1 2.346472772188942 7.581087655402061 34.117954733874775 0 1 0
2818 21 1 17.964738766092484 11.256735255855215 37.55766267452336 0 0 0
767 5 1 11.649587900146159 17.33747273689827 31.604165097935322 0 0 0
768 6 1 11.560215677647449 16.113970879692992 39.0356591149323 0 0 0
769 6 1 11.242692518346935 14.99902476758958 39.98330129049878 0 0 0
770 6 1 12.287793768424375 14.8575907888839 41.089154396788096 0 0 0
771 6 1 11.934621257529878 13.892941984924976 42.25668645736481 0 0 0
772 6 1 13.095839609771371 13.627994256664012 43.1634539137699 0 0 0
773 6 1 12.780152994292616 12.390592952501596 44.01850794897541 0 0 0
774 6 1 14.068643586355563 12.141812249214537 44.82131269696035 0 0 0
3266 27 1 18.735887643793774 13.964097003044877 39.412504631797425 0 0 0
2139 15 1 3.1871971059296076 5.052951971153242 31.001529121710558 0 1 1
8513 56 1 4.526570169208683 18.856372406038957 42.848926093820936 0 0 0
8035 53 1 4.704951166080251 17.045111695093347 34.51119011205394 0 0 0
2816 21 1 17.145409314467212 12.484954477536384 35.52148895667982 0 0 0
1750 58 1 4.272309760544803 0.40317555346609363 30.898245610461828 1 1 1
3706 40 1 18.313248613833363 22.012688724064926 29.068442481638492 0 0 1
7208 36 1 0.6966984950342897 4.486713504106315 42.07631180720562 0 1 0
6370 12 1 1.5331417965014675 20.212493880559457 45.293508759892276 1 0 0
4096 30 1 17.07909412538162 0.06657916308065023 34.593185715986515 0 1 0
986 6 1 8.70227431233037 18.921173575667975 32.43536780992339 0 0 0
987 6 1 8.44786494599011 18.603780516548543 33.94040437734717 0 0 0
988 6 1 9.710841167982187 18.173828032583387 34.6932921235248 0 0 0
989 6 1 9.348910455163814 17.47199276757405 36.03330777791754 0 0 0
990 6 1 10.559006589038546 17.198773290376785 36.84077670478618 0 0 0
991 6 1 10.380890041983697 16.274765298369577 38.01717196625046 0 0 0
992 59 1 12.502784200619006 21.549691705442516 32.732734322367236 0 0 0
993 59 1 12.436330092909737 20.37362761610043 33.69325052337412 0 0 0
994 59 1 13.678970923650327 19.950812740227022 34.52231654984304 0 0 0
995 59 1 13.332507585678277 19.088814894983255 35.71490937840718 0 0 0
996 59 1 14.518686333250887 18.66031202642773 36.51090008095404 0 0 0
997 59 1 14.075427224666516 18.010064783536524 37.776171263758414 0 0 0
998 59 1 15.330186616330861 17.70278579262428 38.646685305480574 0 0 0
999 59 1 15.12864536509555 16.702647261207506 39.830426589698405 0 0 0
1000 59 1 16.405649941490935 16.15318025867274 40.56869969469747 0 0 0
1001 59 1 16.089356550723974 15.613411084027284 41.983874519990245 0 0 0
1002 59 1 17.224320860328746 14.917915002551643 42.70092942576022 0 0 0
1290 7 1 5.7942108290219725 22.674920045555712 30.881161313978833 0 0 0
5930 35 1 1.1381613595419644 18.319441816033088 42.2690020957902 0 0 0
1212 59 1 9.490217307798655 21.83290759290227 29.4460454146146 0 0 0
8282 55 1 5.7301289065001315 20.33598031745512 36.42825586274386 0 0 0
1755 58 1 8.527145927002458 0.7256850385846593 34.0763990260922 0 1 1
3712 27 1 18.27121450623149 20.86638957676761 35.92197373569427 0 0 0
1215 59 1 11.234312909277357 21.61879689534165 31.856499511609176 0 0 0
1216 7 1 9.834415088620762 23.055790460884687 34.821293094096816 0 0 0
1217 7 1 9.691175784536961 21.842904963731204 35.783551434500396 0 0 0
1218 7 1 10.836677408109498 21.730675704854264 36.71851147182056 0 0 0
1219 7 1 10.366133769674457 20.70292203919299 37.70999953358607 0 0 0
1220 7 1 11.311253907094315 20.684736985844633 38.906689542336 0 0 0
1221 7 1 11.118152389758663 19.394337637758223 39.7216489775212 0 0 0
1222 7 1 12.08241503989459 19.405917169193653 40.892529194372656 0 0 0
1223 7 1 12.094930889077757 18.176279652493893 41.75794400670674 0 0 0
1224 7 1 13.018832349301064 18.34854976133185 42.99048736528198 0 0 0
1225 7 1 13.03662010247967 17.015373059235138 43.70359616140834 0 0 0
303 19 1 9.81270738238158 12.761746622093977 29.54018957927797 0 0 1
7748 52 1 3.79311308518551 12.174573988976704 39.42583876246451 0 0 0
8959 56 1 2.607583563060343 25.919233172420704 39.28536769909158 0 0 0
8292 55 1 9.926125494338248 14.016361698810575 46.40157045614595 0 0 0
2138 15 1 2.446030093771204 4.744571077238833 29.718158285001937 0 1 1
9505 4 1 8.46499280325878 3.693349322243215 41.289707266829105 0 1 0
8115 54 1 0.3608989179843853 18.29957348697785 36.99005262983971 1 0 0
8118 54 1 2.7289674353493414 17.42713866218206 38.633116973115115 1 0 0
8034 53 1 3.5672321848520387 16.16146806301235 34.03349273489872 0 0 0
1291 7 1 7.105434552251733 22.6226934938004 31.761843610625515 0 0 0
1292 7 1 7.4424542345711 24.08270237141447 32.09933383284442 0 0 0
1293 7 1 8.831427180430781 24.012057901820636 32.76428046676298 0 0 0
1294 7 1 8.631060727906 22.969596564024112 33.862520557899714 0 0 0
1376 10 1 13.47200892999262 24.97395251766297 34.91308229402264 0 0 0
1377 10 1 13.395679431599103 23.571356946663006 35.59282739952778 0 0 0
1378 10 1 14.382455209940444 23.40961910585386 36.78689805522444 0 0 0
1379 10 1 14.169701259497876 22.24806195204991 37.72782036060828 0 0 0
1380 10 1 15.25358389123908 22.031311521102364 38.79797503782166 0 0 0
1381 10 1 15.211649151659568 20.71708635350886 39.519210077626255 0 0 0
1382 10 1 16.224329870450994 20.65402151181098 40.63185502144095 0 0 0
1383 10 1 16.114503337702377 19.571827775415333 41.70336117262427 0 0 0
1384 10 1 17.223699628693044 19.624709325835695 42.767530163782425 0 0 0
1385 10 1 17.015447715312575 18.584146014343066 43.90802292265778 0 0 0
3929 27 1 13.762976221084362 25.10707746275482 29.460108067283578 0 0 0
604 4 1 2.1841096831518456 12.868006905003487 30.480449980689315 0 0 0
9495 4 1 1.2474566357830346 6.513297643210062 34.18280357175145 0 1 0
1752 58 1 6.465729441607213 0.9807130559059597 31.822303383761408 1 1 1
1596 10 1 11.777283505889377 0.5402834969113209 30.693996354038887 0 1 0
1597 10 1 11.473428157718276 26.304008398643397 31.833463574373454 0 0 0
1598 10 1 12.595239344248911 26.152380524491903 32.90087055888783 0 0 0
1599 10 1 12.277952733315134 25.01065993140036 33.9047875550062 0 0 0
1600 25 1 13.200321102350728 21.527788586863597 44.195399686256565 0 0 0
1601 25 1 14.487151922565626 21.07703822291613 44.86534528364121 0 0 0
5613 38 1 0.6021906029725571 12.928574358209985 43.13195979166096 0 0 0
5614 38 1 1.8559510328737063 12.438263508591843 43.777179947709875 0 0 0
8743 59 1 8.714126543580479 21.211241262616863 42.81227891280641 0 0 0
8278 55 1 2.4424092804699606 20.359400626684504 33.63165831225881 1 0 0
2817 21 1 18.255188082755755 11.69846976371822 36.13748444827076 0 0 0
217 2 1 4.030969517948571 9.602235323372478 31.614536775381982 0 0 1
8956 56 1 0.6366000092068775 0.9633082464349326 38.30621821651102 1 1 0
9340 63 1 4.5249220021909355 2.156244629186518 41.77670349453495 0 1 0
8736 59 1 6.279129535512595 24.932657382557082 35.312955430668985 0 0 0
4098 30 1 17.894104901841768 25.41028540966406 36.53298990766662 0 0 0
982 43 1 3.9429478373973716 18.102630023590468 31.209199944615037 0 0 1
1006 59 1 18.896113059513954 12.52206047062375 46.86117345234341 0 0 0
8963 56 1 4.6866560850687655 23.504090975525447 42.947594919451966 0 0 0
8281 55 1 5.9969458602494345 21.19451872718896 35.193297330461384 1 0 0
1672 25 1 10.69876105540408 26.183008607651207 37.07993269210705 0 0 0
1673 25 1 10.36085169383387 25.252094259522874 38.24304217049712 0 0 0
1674 25 1 11.621897578359581 24.785749251619947 38.89141423247372 0 0 0
1675 25 1 11.336396257018704 24.118587015099752 40.22570202406357 0 0 0
1676 25 1 12.561176114813646 23.496943064924253 40.926572504133794 0 0 0
1677 25 1 12.420099219756313 22.86598779297585 42.25867159815832 0 0 0
1678 25 1 13.523543302389896 22.003003219128825 42.85668984566484 0 0 0
1758 13 1 11.459659057775792 3.8641619568774295 31.860695770463025 0 1 0
1759 13 1 12.777025829538545 3.5562053839472307 32.55028386487795 0 1 0
1760 13 1 12.501231168587285 3.038785978168235 33.95856823712214 0 1 0
1761 13 1 13.722694716662588 2.3737268727339487 34.594310466738015 0 1 0
1762 13 1 13.315745823838634 1.515105553151083 35.783953323322464 0 1 0
1763 13 1 14.45487780931373 0.962735610100923 36.5316380506728 0 1 0
1764 13 1 13.969269348253192 0.3282067157204639 37.84222074162504 0 1 0
1765 13 1 15.265380355302108 0.13459682513738128 38.57345091242006 0 1 0
1766 13 1 15.218630765826628 25.713194713905313 39.6494221460596 0 0 0
1767 13 1 16.341999133777346 25.782001947734553 40.59227982550952 0 0 0
1768 13 1 16.162323691151872 24.68806822781483 41.66913703586543 0 0 0
2137 15 1 0.958553277945306 4.687526469148987 29.94193603062682 0 1 1
1751 58 1 4.981073715847271 1.428405706604568 31.737394358349494 1 1 1
215 2 1 1.8045505559809145 8.706323229594814 31.028573358257237 0 0 1
4091 30 1 14.680079028320264 2.3314696064094678 29.05816936840571 0 1 0
1979 13 1 9.362409299534493 4.165780808870717 30.002304483936385 0 1 0
763 5 1 9.045699725309492 17.31316331505971 29.268528484537775 0 0 0
1981 13 1 11.755213803475627 4.639797047173328 30.620693754183435 0 1 0
1982 14 1 9.552334111742306 4.1416168303167 36.118236392368644 0 1 0
1983 14 1 10.752309274839494 3.8504225540865513 36.95102928591109 0 1 0
1984 14 1 10.403710237892223 2.7761914331302737 38.03745464905582 0 1 0
1985 14 1 11.557681422793731 2.5671846325207968 39.04584556713506 0 1 0
1986 14 1 11.223341858987506 1.9349418753551522 40.32973001167349 0 1 0
1987 14 1 12.50166871797545 1.5261356985579448 41.02700265798355 0 1 0
1988 14 1 12.31094448108249 0.32763546806990407 41.83629550547296 0 1 0
1989 14 1 13.473525711013968 0.044756230514513426 42.80349870387175 0 1 0
1990 14 1 13.242468689968153 25.85371724587949 43.97070583810482 0 0 0
1991 14 1 14.530827955447888 25.387769792842512 44.63388677300769 0 0 0
8735 59 1 5.139902199687333 25.63835145767187 34.57473367607288 0 0 0
7654 51 1 1.6595912312820476 11.724321394990941 33.865573281905355 0 0 0
8965 56 1 5.624385654413081 22.291372847967406 44.97029115173418 0 0 0
5616 38 1 2.8004262786658165 11.133424867643782 45.82968761123349 0 0 0
8279 55 1 3.538204215137956 20.780698140099968 34.607303991137954 1 0 0
8036 53 1 5.888378479096696 16.333928253138215 35.078520690555514 0 0 0
6763 45 1 1.5490696174346985 24.576576376037718 44.870234243430765 0 0 0
2055 14 1 5.40332893015033 6.031502349370616 31.374237674660773 0 1 0
2056 14 1 6.513350748157346 5.498744824853548 32.17448301330694 0 1 0
2057 14 1 7.477965039195424 6.642938835653255 32.395280260706734 0 1 0
2058 14 1 8.824471559006293 6.21624597324217 33.082915679539724 0 1 0
2059 14 1 8.563751299904673 5.183422499595081 34.23451472672713 0 1 0
2060 14 1 9.892660716550223 4.976299649491331 34.91257937902406 0 1 0
2140 48 1 12.20291452078608 7.205887505535605 33.472588181780374 0 1 0
2141 48 1 13.082457964699524 7.339593137257879 34.652310009051675 0 1 0
2142 48 1 13.09476100968864 6.154888333057752 35.52772801280845 0 1 0
2143 48 1 13.948927149242841 6.024356285951364 36.846102166397145 0 1 0
2144 48 1 13.908708416097992 4.800732228829676 37.72415972545446 0 1 0
2145 48 1 15.034942626042712 4.750140363228189 38.702094982350744 0 1 0
2146 48 1 14.97591597378611 3.428789810709032 39.520131842171644 0 1 0
2147 48 1 16.09346197287208 3.4925056196289597 40.58156631591355 0 1 0
2148 48 1 15.970308268551333 2.4968569147064734 41.720650244917984 0 1 0
2149 48 1 17.21598557477062 2.3018530352831057 42.67093752465261 0 1 0
2150 48 1 16.91747730297735 1.1706787480432643 43.65278153707791 0 1 0
9501 4 1 7.212679087666102 6.243394283120728 37.3887067726734 0 1 0
9503 4 1 7.514408139526739 4.705184853120769 39.208188276920666 0 1 0
8506 56 1 0.9568968719601725 23.54677398516269 37.70764048069835 1 0 0
1373 26 1 0.8844816587156182 22.50043435009109 29.332445606605972 0 0 1
980 43 1 1.8320462011527312 17.235646766750627 30.17547709948389 1 0 1
2362 48 1 11.30738211385334 8.408775109008836 31.438119403775893 0 1 0
2363 48 1 12.287490459243324 8.490611545670669 32.6312072722108 0 1 0
2364 17 1 17.252889854958063 8.987944903969197 34.58731767944061 0 0 0
2365 17 1 17.00546854674805 7.785008165160563 35.460006239011804 0 0 0
1213 59 1 10.451322082880074 22.929987006559358 29.727670563149736 0 0 0
9344 63 1 6.825485201458692 26.30622358681536 45.699812129122996 0 0 0
2583 16 1 14.162119886378976 11.1242416556046 29.33154550465914 0 0 1
8738 59 1 7.0588396970830205 23.71105516052418 37.371473567877715 0 0 0
9263 45 1 10.73388728504145 23.730623069889415 45.14275886882514 0 0 0
7426 49 1 2.576867215653721 8.169099297586476 39.168621616155974 0 0 0
9252 45 1 4.407518741607484 3.713078495505655 34.701777769359076 0 1 0
2587 17 1 16.1599976301144 9.116248905778232 33.55578142627802 0 0 0
984 43 1 6.28234849755846 18.569354350104135 31.916603134260406 0 0 1
701 5 1 17.933559257793352 9.4774913982701 44.58115784169971 0 0 0
9498 4 1 4.7912925504781105 8.009397628793499 34.86487738095515 0 1 0
8960 56 1 3.8598205830810604 25.252869284851236 39.929363974944444 0 0 0
2812 21 1 15.563521986436077 14.423636987997922 31.028094376946136 0 0 0
2813 21 1 16.60728401615134 14.426291370287773 32.1623192414041 0 0 0
2814 21 1 16.37310627822403 13.335706341750916 33.151670766210174 0 0 0
2815 21 1 17.502049740457835 13.089418542066829 34.129390631242444 0 0 0
5612 38 1 0.9342762687616943 13.796920751638874 41.912420360973336 0 0 0
702 5 1 17.361541647744513 8.980077349140256 45.89685194388838 0 0 0
8741 59 1 7.671044941205989 22.22994093307985 40.8092324248878 0 0 0
9335 63 1 1.1259257590182647 4.770094966295181 37.071470972238444 0 1 0
9500 4 1 5.991198834921187 6.798720541006898 36.77754096077849 0 1 0
7747 52 1 2.518381322744134 12.939364436841878 38.95039441574146 0 0 0
2054 14 1 4.640292894175302 4.723231548846864 31.15217841430784 0 1 0
9257 45 1 7.453742485331051 0.6447796360065606 39.277652139340276 0 1 0
9341 63 1 4.264817966866154 1.03484260800459 42.71724497233054 0 1 0
8509 56 1 3.032530173634214 21.43348619214995 38.71898990029118 1 0 0
3260 27 1 16.48399678498368 17.599969492594372 33.15413450317527 0 0 0
3261 27 1 17.50859193257634 17.287089880359666 34.19872174500716 0 0 0
3262 27 1 17.05027363855376 16.478872619732723 35.38678346754364 0 0 0
1748 58 1 1.9473887159012786 26.294776237018052 30.41294342813343 1 0 1
4543 32 1 17.687515067046135 2.564990532311361 37.3176093392364 0 1 0
7746 52 1 2.71416676776027 13.779771700090102 37.66812295165919 0 0 0
3481 27 1 15.767744583374242 20.14325003693927 30.394755685119993 0 0 0
315 5 1 17.53544073921906 4.582490925132624 46.277647535099305 0 0 0
3482 27 1 15.615272102736407 18.959464352140817 31.304186323564032 0 0 0
3483 27 1 16.89300268188267 18.784814058665212 32.17176124100239 0 0 0
9509 4 1 10.332641929710716 1.3173935114142303 45.212998547840655 0 1 0
603 4 1 1.489851860534343 12.518234573343191 29.23529101986713 0 0 0
8745 59 1 9.519526029141215 20.035637490014018 44.73544450136831 0 0 0
9497 4 1 3.6270129741129584 7.019735963934411 34.77865794264896 0 1 0
3708 27 1 16.282991102809525 23.464967607300014 32.13168450038613 0 0 0
3709 27 1 16.12354345927002 22.589716813882944 33.38522141946495 0 0 0
3710 27 1 17.38921945712589 22.19721821369831 34.049982645801855 0 0 0
3711 27 1 17.346587960100244 20.873022970481355 34.677184282952844 0 0 0
1387 10 1 17.680538335647086 17.63977884252533 46.00240015457403 0 0 0
764 5 1 10.519627928696696 17.069473860097858 29.465566835022678 0 0 0
7749 52 1 3.6471349033919536 11.173546328913169 40.576425320559935 0 0 0
8116 54 1 1.643904310360913 19.060323471062205 37.32407598693817 1 0 0
3263 27 1 17.97319691662205 16.266556283318167 36.46362097769344 0 0 0
3931 27 1 15.05722892808588 23.816567474271878 31.257339175160556 0 0 0
5615 38 1 1.6277456395438517 11.63101577044826 45.06589166920544 0 0 0
9506 4 1 8.077737698290383 2.8871292755125615 42.55670049183278 0 1 0
2151 48 1 17.910915480479 1.3501657670535818 44.66921259205654 0 1 0
381 5 1 10.907573095166942 13.894421647239238 29.758537732164765 0 0 0
9339 63 1 3.350223990946405 2.507015998274087 40.97112216687616 0 1 0
8277 15 1 1.2390903053014404 21.038417517117463 34.14946680653027 1 0 1
1214 59 1 11.59420874196715 22.59283857543368 30.71271991236314 0 0 0
4093 30 1 15.552808765941315 1.2839164697937284 31.23544007109299 0 1 0
4094 30 1 16.406038730520024 1.2495984657813246 32.4634383913829 0 1 0
4095 30 1 16.309720559741404 26.63238878315487 33.26335417306191 0 0 0
8737 59 1 5.953603872979655 24.580372945246943 36.81853367800337 0 0 0
3264 27 1 17.72581979498864 15.1046803792332 37.43220796775556 0 0 0
6368 12 1 0.6275745053336866 21.41216978734191 43.31847625060726 1 0 0
8957 56 1 1.6508921324122503 0.3822744270111054 37.38416432076673 1 1 0
6369 12 1 1.8586315119230772 20.9516756926758 44.02546728756218 1 0 0
1756 58 1 9.688973131218706 0.6984750263373457 34.94436713563567 0 1 1
9262 45 1 9.426885963479071 24.179258178673656 44.4779543758213 0 0 0
1003 59 1 16.807154652326822 14.580305572677075 44.103544306976204 0 0 0
4538 32 1 16.233311614130706 5.933890891772286 31.975106696810787 0 1 0
4539 32 1 15.880544746710493 5.008343001163253 33.14711035652624 0 1 0
4540 32 1 17.06161220428272 4.693105140631919 34.063413518849615 0 1 0
4541 32 1 16.750454097419084 4.041717737898109 35.393989761697135 0 1 0
4542 32 1 17.888980711489086 3.183477343248406 35.961514816571835 0 1 0
8740 59 1 8.020748856497748 22.921384627871348 39.52053062159451 0 0 0
1769 13 1 17.436931888767198 24.557864881879695 42.579055114937134 0 0 0
8117 54 1 2.9510225144092823 18.293923363911535 37.388615887595634 1 0 0
8746 59 1 10.701113491653512 19.464992754359145 45.50624790093129 0 0 0
2360 48 1 10.498755495814565 9.480760990412627 29.23602892840644 0 1 0
1595 10 1 10.513476423799284 0.905878780152714 30.0401358477495 0 1 0
8276 15 1 0.16897873223938736 20.56487095123277 33.19787495564587 1 0 1
9342 63 1 5.562379822846018 0.9119952235335588 43.65732026737224 0 1 0
2584 16 1 15.333024979404923 11.171020522244044 30.296194917623072 0 0 1
7753 52 1 5.44554950615469 8.831530460189636 44.70273515435219 0 0 0
8734 59 1 3.895479805039105 24.79038810253881 34.68640641280042 0 0 0
382 5 1 12.015595300161277 13.535932576532405 30.737531341231552 0 0 0
9337 63 1 2.3957166545720967 3.8446534274756345 38.90864834716483 0 1 0
3034 21 1 14.36008344652604 15.74536738909549 29.204597507200624 0 0 0
4097 30 1 16.88529022295715 25.527556642233098 35.44598993691713 0 0 0
8964 56 1 5.9062524753747345 23.324522537975042 43.8680117906443 0 0 0
9253 45 1 5.616812146557791 3.3077541738483354 35.51920344901835 0 1 0
4616 32 1 15.107779439518737 6.051165427372667 31.04115144430439 0 1 0
1753 58 1 7.482212110953335 2.1428764031015164 32.201745645625486 1 1 1
9254 45 1 5.21975310520058 2.335550683500626 36.58445978178038 0 1 0
9499 4 1 6.1444953927402 7.559793370889184 35.42048963368225 0 1 0
605 4 1 3.342936184128031 13.761029383079558 30.045491543013206 0 0 0
214 2 1 0.8408882704753429 8.290548608659343 29.905734018452353 0 0 1
9508 4 1 9.055555619326018 1.7165840822825813 44.54293989470317 0 1 0
9261 45 1 9.498026474494255 25.00328457541193 43.14585461733858 0 0 0
9256 45 1 6.197721337497708 0.9958080544182262 38.56423092734503 0 1 0
1980 13 1 10.52880847616597 5.152625753932767 29.9251227962487 0 1 0
7668 51 1 9.803909612600203 5.138694285440328 45.92542628778503 0 0 0
7433 49 1 6.544378712288004 4.094647279089283 45.689976562140984 0 0 0
8507 56 1 2.0449447766342717 22.943346324617828 36.972860146310765 1 0 0
5931 35 1 1.1245311878590187 17.145507122354132 43.245858061440664 0 0 0
10 6 1 14.193249403650002 1.8559992187515981 45.735225330990744 0 0 0
8747 59 1 10.304558910522923 18.68415278036758 46.74700344464799 0 0 0
9507 4 1 9.347360506785678 2.2506735702982925 43.16305156986983 0 1 0
2361 48 1 11.411549228025995 9.584492689166494 30.45094534963474 0 1 0
1602 25 1 13.928544655879618 20.592770328852044 46.140330718122165 0 0 0
8284 55 1 6.684166474818874 19.10936261960555 38.37128066801862 0 0 0
5170 60 1 1.50862358967764 7.069576141823528 45.595898732254234 0 0 0
7752 52 1 5.503891278689164 9.9035450630244 43.54389862175195 0 0 0
7755 52 1 6.350102799280625 7.765001332272424 46.86802253380998 0 0 0
9260 45 1 8.227381042608334 25.4480120270496 42.521530905241804 0 0 0
1772 13 1 17.765525076582296 22.103170375506764 45.66558263505671 0 0 0
7431 49 1 5.588250270197396 5.468349545490253 43.88350479425342 0 0 0
7424 49 1 1.7927209103553297 9.375501995850225 37.233028226122 0 0 0
218 6 1 5.381948529103037 10.191486160348648 31.209576867303706 0 0 0
8742 59 1 8.953177848144689 21.847122243959543 41.45965370536719 0 0 0
7428 49 1 3.2895669669488745 6.659550134719386 41.12853806868502 0 0 0
7429 49 1 4.515615590477094 6.348596017713621 41.74631154166958 0 0 0
7430 49 1 4.326388587571934 5.641043053925552 43.033464229841705 0 0 0
7667 51 1 10.160585760584908 6.1758623449660925 44.856105747621605 0 0 0
8124 54 1 5.285753171070715 13.47030095711163 44.43003431819321 0 0 0
1288 7 1 3.3734760425199006 23.281733082167026 30.925372710573512 0 0 0
5169 60 1 1.8929456758287952 7.895927716894656 44.41581343606984 0 0 0
399 4 1 13.624597420390392 6.980392610697426 45.91198262217756 0 0 0
1226 7 1 13.800826177088013 17.057486855900827 44.99434196868123 0 0 0
4545 32 1 18.755450818917048 1.3958165521600103 39.14933751749499 0 1 0
7656 51 1 3.979626061156427 12.557427161808647 34.62803665821125 0 0 0
7657 51 1 5.369482948540391 12.28704401722926 35.078912963893785 0 0 0
7658 51 1 5.36577559866087 11.269115781874975 36.16552324911476 0 0 0
7659 51 1 6.53393487309199 11.033610193980635 37.012153771597845 0 0 0
7660 51 1 6.313311232005855 9.944387079323551 37.98592404091786 0 0 0
7661 51 1 7.369497542668293 9.963088544513107 39.13153830031979 0 0 0
7662 51 1 7.207247964877716 8.715120469730845 40.057933226870034 0 0 0
7663 51 1 8.31584197105748 8.940320092912009 41.02397568955983 0 0 0
7664 51 1 8.34129299730784 7.731941279514038 41.998506414157994 0 0 0
7665 51 1 9.413789969302874 7.70484391511256 43.06942962835199 0 0 0
7666 51 1 9.02979951052471 6.533411944889848 43.931343255282385 0 0 0
8961 56 1 3.5421673460400505 24.306943554438792 41.06494559990605 0 0 0
8046 53 1 10.262666681763882 10.450295529135298 45.36694969469424 0 0 0
8511 56 1 3.617194561046529 20.155879834506536 40.713388614760994 0 0 0
9504 4 1 7.23788197231388 4.036252854896682 40.496074428978545 0 1 0
1004 59 1 17.893922027519146 13.809379268779619 44.76827751245744 0 0 0
8514 56 1 5.757797468841149 18.992064791234302 43.75667641125547 0 0 0
8120 54 1 3.468225396577573 15.95784631050863 40.417669669249804 0 0 0
5933 35 1 1.853157997066523 15.72294465106428 45.27476531471511 0 0 0
981 43 1 3.0772705784896046 18.091662000918646 30.00698171153331 0 0 1
7655 51 1 3.0715943875014204 11.340516805453012 34.30541168247542 0 0 0
983 43 1 5.139515526921129 18.985258225999267 31.028680663084344 0 0 1
5932 35 1 2.2068880981149768 16.8892679736983 44.31185261713043 0 0 0
7750 52 1 4.61518589095365 11.165192079747346 41.69681184362876 0 0 0
7751 52 1 4.323067308202907 10.021507460442052 42.66031221395752 0 0 0
4099 30 1 18.036534414641643 24.129460247407497 37.33290436380625 0 0 0
700 5 1 16.829793846636505 10.029756516297754 43.670221241799055 0 0 0
9343 63 1 5.495169849733654 0.025868559259497808 44.95322870524353 0 1 0
8122 54 1 4.628396595737686 14.406372755773566 42.15013697653397 0 0 0
7432 49 1 5.3091813439521855 4.712965172389478 45.12721905405468 0 0 0
2367 17 1 17.79846997829741 6.5306251335561125 37.36206255530224 0 0 0
8037 53 1 5.475235855741273 15.48321480475035 36.261940480186226 0 0 0
8038 53 1 6.66327957450579 15.36646147708518 37.124619417261705 0 0 0
8039 53 1 6.58180269973797 14.312800154484684 38.260795006576686 0 0 0
8040 53 1 7.785238537190151 14.161810892500885 39.193035707324185 0 0 0
8041 53 1 7.518444647741587 13.169466490764732 40.33035839633585 0 0 0
8042 53 1 8.50921635845301 13.165222708612673 41.4567869888553 0 0 0
8043 53 1 8.110398104879565 12.161869854412975 42.61184482212409 0 0 0