LAMMPS data file via write_data, version 23 Jun 2022, timestep = 1000000

9706 atoms
2 atom types
9690 bonds
3 bond types
9674 angles
3 angle types
9658 dihedrals
3 dihedral types

0 36.89775039 xlo xhi
0 26.67072 ylo yhi
0 236.7516044 zlo zhi
0 7.448720975 0 xy xz yz

Masses

1 14
2 15

Pair Coeffs # lj/cut/omp

1 0.0914 3.95
2 0.1947 3.75

Bond Coeffs # harmonic/omp

1 449.5 1.53
2 449.5 1.53
3 449.5 1.53

Angle Coeffs # harmonic/omp

1 62.0967 114
2 62.0967 114
3 62.0967 114

Dihedral Coeffs # opls/omp

1 1.411 -0.271 3.145 0
2 1.411 -0.271 3.145 0
3 1.411 -0.271 3.145 0

Atoms # molecular

1 6 1 8.353929417217916 2.1945223521222497 10.365441886112286 0 0 0
2 6 1 8.495361291987171 1.4525036115923258 11.69668691543894 0 0 0
3 6 1 9.406655422186114 2.1736631611154364 12.687919942523614 0 0 0
4 6 1 9.682458265127126 1.255837750535439 13.92362115989873 0 0 0
5 6 1 10.254380437856867 1.9362753555434202 15.15693782896406 0 0 0
6 6 1 10.279516241403288 1.0625543016939492 16.40639378725147 0 0 0
7 6 1 11.02466336176335 1.7334292711458454 17.50299440001178 0 0 0
8 6 1 11.799426042493208 0.8441514500954164 18.352698547954788 0 0 0
9 6 1 12.508055622608277 1.5294790465082229 19.49027993127706 0 0 0
10 6 1 13.00374881623466 0.556703614157521 20.548854036057392 0 0 0
1229 7 1 13.195768964307739 14.944529568148804 21.268998813233686 0 0 0
765 5 1 7.049130002914163 8.652828348191402 0.9841358887114398 0 0 0
2054 14 1 3.9507125149886226 23.794676485053326 1.380180948693248 0 0 0
1213 59 1 6.3851462184687815 13.448277814932469 0.9484900289554863 0 0 0
8283 55 1 2.82136211738404 12.15070378212595 9.908033350745232 0 0 0
7654 51 1 1.1572179885140923 3.9851902964357304 7.450789145402225 0 0 0
1757 58 1 6.566723535206665 20.05629755097912 7.013561897506335 0 0 1
219 6 1 4.600570347472535 2.2904540771238158 3.7139315480142447 0 0 0
220 6 1 4.669413792768574 1.6861104078740152 5.1130433290120525 0 0 0
221 6 1 5.687155389954294 2.338663853087465 6.008866139163379 0 0 0
222 6 1 5.861224007573175 1.5847199640954508 7.29677340414816 0 0 0
223 6 1 6.8572637932565135 2.264686017648233 8.193973835037324 0 0 0
224 6 1 7.315522766472033 1.5070430294536616 9.396699333103403 0 0 0
304 5 1 10.762156486264727 3.496203933657303 6.3201153981378475 0 0 0
305 5 1 10.670847855886999 4.001939846046214 7.773112555676713 0 0 0
306 5 1 11.735435439070203 3.4189429036608643 8.616081243114056 0 0 0
307 5 1 11.732035856908732 3.9512783235699604 10.062907767772886 0 0 0
308 5 1 12.811014618068453 3.264373214949155 10.874414069801466 0 0 0
309 5 1 13.042594319329607 3.906499090932509 12.275054167684514 0 0 0
310 5 1 14.113305499363525 3.175651164249137 13.095967606027964 0 0 0
311 5 1 14.141217750655617 3.6206508829831696 14.559139448903888 0 0 0
312 5 1 15.386280081946824 3.2052457985505987 15.367500662142167 0 0 0
313 5 1 15.401981483911426 3.8026900007424085 16.74556703527031 0 0 0
314 5 1 16.382356515941208 3.045681324121754 17.635710289719412 0 0 0
4545 32 1 17.254741062737704 24.401625560331727 10.88447876087319 0 0 0
8962 56 1 2.688443223506276 18.86343426707791 18.246531266011118 0 0 0
8048 53 1 9.619651657888806 7.43171017145663 22.797955916557793 0 0 0
3256 22 1 16.45925597841717 8.622736193545379 1.2474138998059439 0 0 1
383 5 1 8.180782832818597 4.427828488350699 3.4221339089584104 0 0 0
384 5 1 9.438396814406342 3.823375165702396 4.130338591382258 0 0 0
385 5 1 9.515877344171388 4.046025228909071 5.612661802576325 0 0 0
386 4 1 5.609087296960306 6.190879336466305 6.50865236066515 0 0 0
387 4 1 5.467054177977582 6.004449594857474 8.007687468283066 0 0 0
388 4 1 6.9096199251332235 6.160438135526985 8.638664302181732 0 0 0
389 4 1 6.875602189411905 6.198437030152718 10.192760638749922 0 0 0
390 4 1 8.211526519810793 6.077144718361038 10.89927365309146 0 0 0
391 4 1 7.921885004276369 6.524684203512465 12.304127907900147 0 0 0
392 4 1 9.231257421496526 6.480895950546314 13.059555552948504 0 0 0
393 4 1 9.162377400744449 6.299154441568939 14.522801291745521 0 0 0
394 4 1 10.533631218294662 6.305183263841043 15.18753962445598 0 0 0
395 4 1 10.532340037140843 5.742555260440026 16.63789079523727 0 0 0
396 4 1 11.853061042493673 5.700504669808092 17.34800541894715 0 0 0
397 4 1 11.792699935121366 5.3135585431792896 18.85645227402246 0 0 0
398 4 1 13.102018170672903 5.694309152841987 19.550742038980445 0 0 0
3035 21 1 12.850441615354699 6.398335880549679 2.092404731401066 0 0 0
2586 17 1 14.564904039483764 1.989779582079584 4.375117161477824 0 0 0
1993 14 1 13.62534733681542 23.11815178719758 22.103311744865263 0 0 0
8512 56 1 1.7302303643446577 14.105061559065925 16.47893304457661 0 0 0
4548 32 1 18.555152451518353 23.424183981254306 14.562657811542532 0 0 0
4090 30 1 11.47391743357392 19.075508438554913 0.6891462849216773 0 0 0
606 4 1 3.5313220169519943 6.0301068863194525 1.8973664001282617 0 0 0
607 4 1 3.297823243017869 6.125321373880363 3.4066361685099125 0 0 0
608 4 1 4.540895247611083 6.234984292146357 4.234081136116124 0 0 0
609 4 1 4.306372281596244 5.869882645504945 5.697401994169276 0 0 0
689 5 1 9.28154986937829 8.128680572765775 4.1577951403698945 0 0 0
690 5 1 8.977371224203427 8.019244912695855 5.628749497503673 0 0 0
691 5 1 10.280318399672183 7.74314857563149 6.369130669943118 0 0 0
692 5 1 10.151067088692171 8.112069959601492 7.810872605307052 0 0 0
693 5 1 11.480938917878193 7.927666864550825 8.527574886986097 0 0 0
694 5 1 11.529233866010873 8.240044108752171 9.984142216306328 0 0 0
695 5 1 12.864319223511341 7.998766727797716 10.710646767910712 0 0 0
696 5 1 12.797886263078981 8.35800100189358 12.173923596966914 0 0 0
697 5 1 13.95700133825042 7.936970364106454 13.085906188854663 0 0 0
698 5 1 13.794406955278474 8.29054737612263 14.5488306158226 0 0 0
699 5 1 14.976857989384333 7.837030275254009 15.40854424923549 0 0 0
985 6 1 3.12525146075373 10.354981371569867 3.115670559973294 0 0 0
7754 52 1 5.807987014219059 5.355986724136063 23.347114660888778 0 0 0
1754 58 1 4.057429394195782 19.99301867053132 4.083312494968604 0 0 1
7748 52 1 1.7950067425724996 5.300446386640103 17.077391641736067 0 0 0
9265 45 1 8.303592966542702 20.990469940197944 22.34168823157348 0 0 0
766 5 1 8.261105347627389 8.35060347984546 1.8313700598232083 0 0 0
767 5 1 8.062246058803776 8.553989392150882 3.3578091274988893 0 0 0
768 6 1 7.993702766115497 10.152363426250753 10.651225431670207 0 0 0
769 6 1 7.857816702423619 10.596158219392265 12.133839093901472 0 0 0
770 6 1 9.113895976533023 10.245986778923697 12.898362533014904 0 0 0
771 6 1 9.217735549767859 10.707414081563776 14.388496677095423 0 0 0
772 6 1 10.571199574021227 10.19767327133406 15.028005349950641 0 0 0
773 6 1 10.548284294078055 10.608824777958183 16.504838599175915 0 0 0
774 6 1 11.789380255520417 10.201032921090274 17.19173191891523 0 0 0
775 6 1 11.691380465674737 10.180638988327198 18.705522403543302 0 0 0
776 6 1 12.963585278053111 9.86699374567843 19.44979940502288 0 0 0
1772 13 1 16.70817806708453 21.019146356871484 20.607396441422598 0 0 0
8035 53 1 1.8995631046734518 8.217542197437567 8.130923806413822 0 0 0
705 5 1 19.066975445666607 7.415227128730262 21.865169046759988 0 0 0
3715 27 1 18.258081206804004 14.613145674877257 13.10550925125474 0 0 0
1387 10 1 16.929871014729866 17.095862106262558 19.255386365945025 0 0 0
2156 48 1 18.481757253763192 25.519258665491257 23.44688332097935 0 0 0
315 5 1 16.358232278682436 3.563006375526633 19.08602006765169 0 0 0
4096 30 1 14.923710957811837 19.12473255204531 7.617998212615073 0 0 0
986 6 1 4.467842678991447 10.200139178199334 3.800091818647171 0 0 0
987 6 1 4.3123552736583015 10.4702998515277 5.279753749970407 0 0 0
988 6 1 5.567118954806135 10.264872703244027 6.081041976679527 0 0 0
989 6 1 5.477328638040235 10.279461023515838 7.581634423684701 0 0 0
990 6 1 6.845070642002315 10.231939255927966 8.257755465626376 0 0 0
991 6 1 6.680890827490893 10.250127026992555 9.804081907732764 0 0 0
992 59 1 8.36427347721953 12.695853702785431 4.250497693069224 0 0 0
993 59 1 8.485839420815541 13.12361762273953 5.675797022846836 0 0 0
994 59 1 9.577219317119198 12.397895756286818 6.527590306711073 0 0 0
995 59 1 9.812127281778507 12.99130198311157 7.908996247485975 0 0 0
996 59 1 11.127088685216872 12.536855562614965 8.546448354311067 0 0 0
997 59 1 11.247124354904109 12.9972554724143 10.005499425867486 0 0 0
998 59 1 12.42172881786932 12.377562481760124 10.734044615692529 0 0 0
999 59 1 12.694471621117318 13.034533805501214 12.060534196456448 0 0 0
1000 59 1 13.815807091629221 12.427090374336705 12.829976871790766 0 0 0
1001 59 1 13.959165224528276 13.106941045881143 14.185009687027181 0 0 0
1002 59 1 14.69713912732432 12.303422727843643 15.246758899428682 0 0 0
1290 7 1 2.5228989797803276 15.759517373026258 1.094813621040562 0 0 0
2139 15 1 2.74113693444159 24.20075313394063 0.5787072191578991 0 0 1
2583 16 1 11.8140130728756 1.759953116980474 1.504183847346083 0 0 1
8282 55 1 2.092831198904296 12.916613247304364 8.834372481337912 0 0 0
1755 58 1 5.448048838110104 20.173118028373906 4.726025598023103 0 0 1
1214 59 1 7.473673235214008 13.032352870901157 1.950543717867913 0 0 0
1215 59 1 7.361143429426628 13.434763787584963 3.377444783411624 0 0 0
1216 7 1 5.5009138701166735 14.870321919327225 6.671651499167828 0 0 0
1217 7 1 6.175411013372995 15.625775925593285 7.85345002848255 0 0 0
1218 7 1 6.611393561067248 14.694045036371374 9.05485169295485 0 0 0
1219 7 1 7.254439840826931 15.46402690379315 10.20494595346169 0 0 0
1220 7 1 7.727758237027727 14.549881653544709 11.336728196143266 0 0 0
1221 7 1 8.45287374182947 15.415691529826912 12.404415292071686 0 0 0
1222 7 1 9.144889373748088 14.461975854366463 13.412471734184994 0 0 0
1223 7 1 9.616889394296457 15.199326303126641 14.657335303082952 0 0 0
1224 7 1 10.3042255125966 14.241075347835215 15.672662903612418 0 0 0
1225 7 1 11.057791254350963 15.056742518904079 16.698044666559614 0 0 0
1226 7 1 11.79660665287008 14.18253944242221 17.720643052438785 0 0 0
1227 7 1 11.974113206967312 14.834976088334924 19.11006944356396 0 0 0
1228 7 1 12.751094346744292 13.994012149423185 20.16043290530927 0 0 0
2584 16 1 13.119593707939769 2.1064926085080895 2.155166269735402 0 0 1
3265 27 1 17.33113748221508 10.419333572123488 12.633188568439078 0 0 0
9505 4 1 6.745446917558066 26.02236434617267 17.001830315831793 0 0 0
8121 54 1 2.096788007467444 9.8064049228012 16.46695814197296 0 0 0
3266 27 1 18.622027622256137 9.91800163791292 13.208734617892164 0 0 0
3714 27 1 17.044528298338626 15.011428705579577 12.302017927670606 0 0 0
1291 7 1 2.777458857683203 15.119526298978922 2.3991824174503886 0 0 0
1292 7 1 3.752608302338398 15.907340431087478 3.258657174691133 0 0 0
1293 7 1 4.041263002144861 15.043325937116116 4.473094070003576 0 0 0
1294 7 1 5.039083179823393 15.680965465270122 5.481139501778763 0 0 0
1376 10 1 10.218330113691689 16.686374624878532 6.90818933189721 0 0 0
1377 10 1 11.28040414723517 17.21918546941624 7.836349281380693 0 0 0
1378 10 1 11.062676111440217 16.884895043130438 9.357563886279582 0 0 0
1379 10 1 12.354581793445801 17.17455600450305 10.181482449406584 0 0 0
1380 10 1 12.199732313411944 16.807316914124574 11.650049498409702 0 0 0
1381 10 1 13.455436986589998 16.974795861959016 12.497815746438341 0 0 0
1382 10 1 13.178754727119905 16.994463581908214 13.988967740636069 0 0 0
1383 10 1 14.39549115754836 17.402666718118812 14.871639998512299 0 0 0
1384 10 1 14.354117190565072 16.827855634623237 16.269159982759774 0 0 0
1385 10 1 15.73875655168529 16.99060034234745 16.96231295872414 0 0 0
1386 10 1 15.614665914050027 17.048661705263537 18.45094682303162 0 0 0
3929 27 1 13.122025843354203 14.96698191570616 1.365367567599171 0 0 0
9250 45 1 0.43713822227997856 22.121387745654655 4.881636470923498 0 0 0
1752 58 1 2.882009022749617 19.60420156876372 1.766579624713695 1 0 1
1596 10 1 8.00710836752971 17.142190100800022 2.3332745090803644 0 0 0
1597 10 1 9.18174169769814 17.5408611386593 3.236700956075126 0 0 0
1598 10 1 9.099166711827749 16.920403325213837 4.638993229380179 0 0 0
1599 10 1 10.37261428879911 17.077997861000767 5.45330016957287 0 0 0
1600 25 1 10.646032458464527 19.12275873913016 16.36248027738216 0 0 0
1601 25 1 10.56145468350307 19.18505077646069 17.863262498639692 0 0 0
1602 25 1 11.896593754278342 18.968215555885276 18.446450253259453 0 0 0
1603 25 1 11.84957083226777 18.923828941928274 19.99552387664859 0 0 0
1604 25 1 13.18253062390166 18.926128371955755 20.750438907726608 0 0 0
1605 25 1 12.980595848257678 18.92531070903459 22.281006313573396 0 0 0
318 5 1 18.92758282574346 3.1266900989994517 21.96281826368573 0 0 0
8731 59 1 0.501254921867218 17.699548001177313 4.7596256306150195 0 0 0
2821 21 1 18.21089118502295 6.458257141047584 13.656010170973252 0 0 0
3935 46 1 16.910130284214606 16.73499042581412 1.5006773191108633 0 0 0
8120 54 1 0.789683577142406 9.979238081552092 15.800677844363346 0 0 0
4535 16 1 15.936907415350836 21.747301990447323 1.4650277871205706 0 0 1
400 4 1 14.287306745044717 5.769191831365255 21.85743389374792 0 0 0
2368 17 1 18.025911834168916 1.8526612386057344 11.108169686500421 0 0 0
8963 56 1 2.4894663679061644 18.399835494844922 19.711252181614356 0 0 0
9509 4 1 9.227132376373799 25.450937046431765 21.39568256562664 0 0 0
1672 25 1 6.282997426604455 19.68658107072478 8.49392571307201 0 0 0
1673 25 1 7.546551083211072 19.82723108709661 9.329676223210631 0 0 0
1674 25 1 7.49783977745084 19.15443700224249 10.733066259140985 0 0 0
1675 25 1 8.617863253340397 19.448995272665556 11.678382766315922 0 0 0
1676 25 1 8.290452462611599 19.22810253900885 13.167504137798122 0 0 0
1677 25 1 9.478990457373415 19.360693031421558 14.097949066662617 0 0 0
1678 25 1 9.317577446098582 19.38732317761294 15.633212993741774 0 0 0
1758 13 1 9.314067538489205 21.32480463958579 4.479015218961894 0 0 0
1759 13 1 9.87834661952522 22.021809610490312 5.728860413986339 0 0 0
1760 13 1 10.648686436525795 21.058640657698223 6.6172844287128205 0 0 0
1761 13 1 10.78973528106835 21.802819441031733 7.934445130533478 0 0 0
1762 13 1 11.56895391345989 20.95043501493146 8.947016730511756 0 0 0
1763 13 1 12.472291777451826 21.679595612318867 9.957548222105924 0 0 0
1764 13 1 12.433481683430644 21.15671783398503 11.35809968200979 0 0 0
1765 13 1 13.436004614004904 21.99743286459534 12.237378241720787 0 0 0
1766 13 1 13.412189518553093 21.539201800299107 13.71174911711154 0 0 0
1767 13 1 14.544186352506648 21.94181087871821 14.665080370259034 0 0 0
1768 13 1 14.463494123960535 21.51888809463136 16.133599608930222 0 0 0
1595 10 1 8.073289041128106 17.63925210321113 0.8900088306080473 0 0 0
9496 4 1 0.8070128481437128 26.026053816581747 7.087280743853548 0 0 0
1751 58 1 2.8686717224265297 20.00361740657566 0.35923425092001837 1 0 1
3258 22 1 17.53316847608014 8.46358268914155 3.5297217474676774 0 0 1
1979 13 1 7.807765507403153 22.39967784454355 1.0678352184466944 0 0 0
1980 13 1 8.24321802492578 21.57917471545689 2.246695858057078 0 0 0
1981 13 1 8.607716960070386 22.25971666047069 3.5350962873663656 0 0 0
1982 14 1 7.2682370489014225 24.232860234934172 9.702048837375528 0 0 0
1983 14 1 8.464453325354615 23.73167465565361 10.485379758072268 0 0 0
1984 14 1 8.16698379061211 23.858313093896506 11.980091899080865 0 0 0
1985 14 1 9.374815726791363 23.87325994535082 12.842279442641402 0 0 0
1986 14 1 9.13090370896894 23.62866804932988 14.330506263127365 0 0 0
1987 14 1 10.38057351822965 23.57498318761393 15.179514319494775 0 0 0
1988 14 1 10.21111548880175 23.41764996012887 16.737102279475586 0 0 0
1989 14 1 11.524129948274634 23.187769300314777 17.490542547318448 0 0 0
1990 14 1 11.425131335215394 23.10617515564619 18.984516070570375 0 0 0
1991 14 1 12.69415667313563 23.16894593832657 19.81528652438417 0 0 0
7668 51 1 9.322459648439802 3.4865530759028234 23.222741219251223 0 0 0
1230 7 1 14.023130619509088 14.156158588132943 22.304920375626967 0 0 0
9337 63 1 0.44488125295027514 23.954222449440238 13.857354152406105 0 0 0
1390 10 1 17.88103976576224 16.361347285751272 23.118400832769606 0 0 0
381 5 1 7.059413469039655 4.549532735383274 1.1706443145195284 0 0 0
8036 53 1 1.9244736713392543 7.875428160547354 9.643898656103145 0 0 0
2367 17 1 16.738387467385184 1.6525822672953783 10.38953638110198 0 0 0
2055 14 1 3.8166835686001916 24.123535362788676 2.8629706271161033 0 0 0
2056 14 1 5.119124155498844 23.98219405762637 3.6421255567931046 0 0 0
2057 14 1 5.043984075952535 24.35698718505347 5.145341656891179 0 0 0
2058 14 1 6.394678827425258 24.252238171261904 5.868381394592564 0 0 0
2059 14 1 6.199917947901887 24.32180432279946 7.384963941409241 0 0 0
2060 14 1 7.5189728936639755 24.223416200184637 8.199547688939617 0 0 0
2140 48 1 9.689070702174638 0.11178981310854123 5.151763691691756 0 1 0
2141 48 1 10.641461266959013 26.071404585933404 6.125488665517491 0 0 0
2142 48 1 10.457757819602172 26.516892862616846 7.597022873088823 0 0 0
2143 48 1 11.561481743421126 26.02911821661013 8.489431190202476 0 0 0
2144 48 1 11.311621903681147 26.104563206646244 9.98755476003399 0 0 0
2145 48 1 12.652745365341415 26.02440614545267 10.723330660388314 0 0 0
2146 48 1 12.508475984692742 26.091717456723245 12.232465672854518 0 0 0
2147 48 1 13.849724176596267 25.863147482998826 12.955281981856439 0 0 0
2148 48 1 13.923929357536887 26.202817511148965 14.420368415631449 0 0 0
2149 48 1 15.19228573011074 25.85234330688701 15.187351496829518 0 0 0
2150 48 1 14.879951348516006 26.093004667036105 16.657637198296985 0 0 0
9501 4 1 4.487233897864975 25.380798542534908 12.4134052373316 0 0 0
9503 4 1 5.597769298298208 26.09966058605477 14.688949006023725 0 0 0
8033 53 1 0.8234362392786151 8.04113995812715 5.737509798763361 1 0 0
8517 56 1 3.9411478124324963 14.038794223363412 22.409262904757185 0 0 0
7434 49 1 5.571802471509287 1.1854893169780338 23.075984813824643 0 0 0
2362 48 1 8.30520781632716 0.2125132334498741 3.0323412116633897 0 1 0
2363 48 1 9.579545890072197 26.371239253185117 3.674858208298253 0 0 0
2364 17 1 15.603222187077154 2.0008558691059717 6.555827501623475 0 0 0
2365 17 1 15.587299044467605 1.6679191286366604 8.072649711331527 0 0 0
2366 17 1 16.805337754403915 2.159299973184153 8.930656984042063 0 0 0
2155 48 1 18.414030547839307 25.176468148369043 21.991690749374538 0 0 0
2592 20 1 17.767060728475013 4.311679232968188 3.6710833377898604 0 0 0
1773 13 1 17.924275218954428 20.672766369136568 21.501555764165115 0 0 0
9263 45 1 7.1378886128683785 21.274865930875304 20.062036555543358 0 0 0
2360 48 1 6.9200723571548375 0.11472217575183843 0.9220016417611999 0 1 0
9252 45 1 1.666236343003269 21.934608680799446 7.080647891654292 0 0 0
2587 17 1 14.548728716909796 1.2982345211505844 5.754796821942859 0 0 0
984 43 1 3.324341995796863 10.377603635392783 1.6208335271444159 0 0 1
701 5 1 16.305034978818647 7.910562349462435 17.663783433565317 0 0 0
9498 4 1 1.8470080236537616 25.77797203713979 9.50234961672508 0 0 0
9495 4 1 1.1276634449323595 26.18257839535718 5.603800855176649 0 0 0
2812 21 1 12.984513113203121 6.090381207292228 3.639554555758471 0 0 0
2813 21 1 14.367228368580621 6.398533709624785 4.173412016858803 0 0 0
2814 21 1 14.397346758600145 6.189984609041381 5.672069895639037 0 0 0
2815 21 1 15.739721620494448 6.360272078573903 6.39750467767653 0 0 0
2816 21 1 15.500073922970317 6.037160412247921 7.9307037168533165 0 0 0
605 4 1 2.2863147588774373 5.7814008030914374 1.0821153099962806 0 0 0
7433 49 1 4.293389275646668 0.8149586308736761 22.393073559943588 0 0 0
2817 21 1 16.71776011259782 6.357214842922278 8.846375976698699 0 0 0
8965 56 1 3.837254649112326 18.645645316107547 22.030489447389513 0 0 0
4102 30 1 18.384459237200026 18.898165261794958 14.534166267241341 0 0 0
8966 56 1 5.193827057679756 18.798318884442264 22.682385938900445 0 0 0
9257 45 1 3.7690583455305964 21.220486685240974 13.213877276604482 0 0 0
9341 63 1 2.9865354322028916 23.870815819923695 18.327748217008057 0 0 0
1389 10 1 17.91798254990266 16.674150931333077 21.61787880056124 0 0 0
3260 27 1 14.999867407807976 10.592561061467414 6.568160588910923 0 0 0
3261 27 1 14.764442805883434 10.782683745717616 8.089520665149614 0 0 0
3262 27 1 15.994000859645837 10.306240978249335 8.816453180427292 0 0 0
3263 27 1 16.001145327426524 10.615177039940958 10.31789358958005 0 0 0
9266 45 1 9.604354861106303 21.18844286391626 23.136591608057397 0 0 0
3264 27 1 17.251242998575556 10.15577382061228 11.138373117402184 0 0 0
3481 27 1 12.646131086741196 10.269169437618158 3.416339656257592 0 0 0
8127 54 1 5.543797081670487 9.694301115220028 23.15063138592467 0 0 0
3482 27 1 13.95133792944053 10.275939300856814 4.204121617943015 0 0 0
3483 27 1 13.720337071703383 10.62495123942407 5.7306852689570205 0 0 0
1992 14 1 12.354823942349258 23.02973978810913 21.264625709278953 0 0 0
9345 63 1 5.074244117157099 23.740650792052463 23.08483335920196 0 0 0
8745 59 1 8.419950878841693 16.830159110568808 20.747870382913614 0 0 0
9497 4 1 2.0318534453676005 25.88124760056519 7.941936760279065 0 0 0
3708 27 1 13.95458761501311 15.159204683856926 5.201577195006994 0 0 0
3709 27 1 15.157620539710472 14.936218200310734 6.137256302052276 0 0 0
3710 27 1 14.803457764209742 15.076682044778313 7.626909868658598 0 0 0
3711 27 1 16.000751976833417 14.773692298574366 8.542146606069943 0 0 0
3712 27 1 15.846307796389747 14.99489236327832 10.005986084841265 0 0 0
3713 27 1 17.1493822746258 14.715966585711204 10.782692200196605 0 0 0
3479 23 1 11.685294793493126 10.630601224947016 0.9786434655578995 0 0 1
1007 59 1 17.52660842475073 12.75175563280204 20.99203745519319 0 0 0
3930 27 1 12.949580798500818 15.318005503534552 2.850786827635122 0 0 0
3931 27 1 14.232823433628562 15.148821957091313 3.6652661719449022 0 0 0
1008 59 1 18.468224638650806 11.80995927730293 21.774666781082416 0 0 0
8518 56 1 5.270358579399913 14.099497591477991 23.192568743266655 0 0 0
2151 48 1 16.201782651148672 25.790236934631686 17.46930277439172 0 0 0
382 5 1 8.062053680123174 3.7964501399142963 2.054304997545982 0 0 0
9339 63 1 1.6144710168173146 23.883955738329586 16.050426872162266 0 0 0
2369 17 1 17.942694746080583 1.5173857657282002 12.652303205325193 0 0 0
4092 30 1 12.488799079268674 18.979257309889245 3.1448848504862754 0 0 0
4093 30 1 13.545770852305205 19.697961930956605 3.9892411460576778 0 0 0
4094 30 1 13.678365044737209 19.107509499876514 5.338153929097361 0 0 0
4095 30 1 14.725716337975866 19.790191702538923 6.278929899089175 0 0 0
704 5 1 18.132082872843185 8.258422341991388 20.963800603974168 0 0 0
4100 30 1 17.01322433453278 19.118457597106186 12.319069703821478 0 0 0
7746 52 1 0.767499715853245 5.597324302029027 14.708083026527492 0 0 0
703 5 1 17.494676777637114 7.6408132036066405 19.79818047744212 0 0 0
4544 32 1 16.000556962507513 23.95971384386962 10.113224070919713 0 0 0
1756 58 1 5.372301044110145 19.790498828899906 6.181078195770464 0 0 1
9262 45 1 7.263854903791237 21.57246706480062 18.581109006723892 0 0 0
1003 59 1 14.965712949827392 13.132540604116468 16.50123535045845 0 0 0
4538 32 1 12.590449910913309 23.593590317634014 3.2571551363558466 0 0 0
4539 32 1 13.80374972588214 24.001224009714 4.106472996921458 0 0 0
4540 32 1 13.661991973338965 23.649677700267766 5.565274391425246 0 0 0
4541 32 1 14.88141619364705 24.163603984967818 6.470057566955164 0 0 0
4542 32 1 14.632186384521509 24.077141590895224 7.984446067565448 0 0 0
9264 45 1 8.459446086822105 21.52296087468112 20.92217317529299 0 0 0
1769 13 1 15.785320889584453 21.818852913912835 16.86895860408937 0 0 0
8747 59 1 9.905615827557124 16.66340650565007 22.85496058850136 0 0 0
4615 32 1 11.632093869691046 23.859438290873204 0.9724256498286362 0 0 0
4616 32 1 12.920354742244662 23.85528983164047 1.79543953352183 0 0 0
2819 21 1 17.340274387285167 6.596414226935505 11.26626220250164 0 0 0
3257 22 1 17.75284408637451 8.801866079736993 2.0187414626693583 0 0 1
9342 63 1 2.863195611110459 23.442670306861853 19.802141220052555 0 0 0
7426 49 1 0.9135365187296864 1.523763343799513 13.924548395272422 0 0 0
7753 52 1 4.524239988282097 6.002845706409417 22.69951990983733 0 0 0
217 2 1 3.661154297965098 2.236411880207946 1.3249088690004798 0 0 1
2361 48 1 8.26551088879349 26.527828589653137 1.5658518661869216 0 0 0
1388 10 1 16.67347809019595 16.7977972976562 20.78799248389585 0 0 0
8119 54 1 0.8242287525201917 10.01302392760191 14.268767089245358 0 0 0
4097 30 1 15.728772682967678 19.962417361764814 8.622092206039136 0 0 0
8964 56 1 3.78843223428891 18.624649013488042 20.487811632101888 0 0 0
12 6 1 14.276130084990406 0.425296119889629 22.879857625938595 0 0 0
2591 20 1 17.74878113957934 4.240540741003199 2.1182603954926273 0 0 0
1753 58 1 4.155298557946784 19.88547236774058 2.5538105904076276 1 0 1
9254 45 1 2.8462935602086885 21.58243501507583 9.258446374529505 0 0 0
9499 4 1 3.2231810388487574 25.5617589820933 10.237975561754281 0 0 0
4537 31 1 17.058328840021787 21.8571879685956 3.8370346791345895 0 0 0
1005 59 1 16.202324135402804 13.1107842171462 18.780260524093 0 0 0
9508 4 1 7.908419075266914 25.53995787503211 20.6039456382791 0 0 0
9261 45 1 6.031245919328559 21.386983740634804 17.70896083093299 0 0 0
9256 45 1 3.9707378362189383 21.281740532982948 11.697463148289277 0 0 0
702 5 1 16.585246469708185 8.564628570030639 19.016980436785353 0 0 0
777 6 1 12.936831741021027 10.118404893427542 21.05647546979178 0 0 0
4546 32 1 17.30227112192188 23.833418121849377 12.314170125740592 0 0 0
4098 30 1 15.947578740223452 19.257289656235017 9.953785573252553 0 0 0
2152 48 1 16.09601929227077 25.862962869138762 19.018104902232384 0 0 0
3707 49 1 17.587334786671704 12.623166019840276 2.23060483738228 0 0 0
8746 59 1 8.65334786960013 16.172686968733668 22.113169781853152 0 0 0
9507 4 1 8.045788060042575 25.757379561452346 19.116577776111786 0 0 0
9510 4 1 8.99095707588757 25.300854272291353 22.926018235561212 0 0 0
399 4 1 13.141490121329399 5.270103937631311 21.05729477456832 0 0 0
8284 55 1 3.468193012594785 12.974288043295127 11.026570116258645 0 0 0
3938 46 1 18.402920418464554 17.658467445113963 4.9588563678507835 0 0 0
9344 63 1 3.779138006196167 23.728707655193794 22.290317715134602 0 0 0
1289 7 1 1.5427482732886628 15.020795876373985 0.13274147522067017 0 0 0
9260 45 1 6.168332636257889 21.666031471124253 16.209887736059116 0 0 0
2820 21 1 17.521549037005645 5.74222148679969 12.533488854934692 0 0 0
7431 49 1 2.994649894186991 0.7641743793851383 20.09031101529016 0 0 0
1594 9 1 6.758257317805515 17.673761546293715 0.18670638320942698 0 0 1
218 6 1 3.8651762316173492 1.4888935800382372 2.6758176300829004 0 0 0
3937 46 1 17.45708970717505 16.90028309455729 4.00105292492126 0 0 0
7428 49 1 1.9870034300719719 1.5887274786669974 16.420365396520538 0 0 0
7429 49 1 1.7628196075950489 1.1028380459186846 17.867931220050654 0 0 0
7430 49 1 3.1176172064372545 1.2493037530125282 18.650918141835795 0 0 0
7667 51 1 9.254458833573661 3.102363326590092 21.70403256439409 0 0 0
1006 59 1 17.169524480767972 12.224957596805794 19.572440172458847 0 0 0
779 6 1 14.124635908900327 10.06877793628807 23.281943707463732 0 0 0
4101 30 1 18.068060174211375 19.726037913945156 13.223713257333127 0 0 0
3480 23 1 12.809506211112993 10.176941828422681 1.8580768172706745 0 0 1
8034 53 1 0.6421238151761333 8.071778762346712 7.271485509788765 0 0 0
7655 51 1 2.371847825812421 3.3574938383741126 8.090985427266574 0 0 0
7656 51 1 2.335674385977811 3.5753415298552516 9.643695366532759 0 0 0
7657 51 1 3.5927010223841043 3.1309771455090543 10.416360912758696 0 0 0
7658 51 1 3.576411775057208 3.5759486754851584 11.888567822439033 0 0 0
7659 51 1 4.899950266519834 3.467197316999903 12.540671597573755 0 0 0
7660 51 1 4.6852986765199836 3.8938535924062085 14.051006510100278 0 0 0
7661 51 1 5.987664268731282 3.554566251380636 14.875881816163727 0 0 0
7662 51 1 5.729246028411203 3.62994178220679 16.37872003416515 0 0 0
7663 51 1 6.917855802358358 3.3076364603278328 17.263504616250067 0 0 0
7664 51 1 6.764329548394619 3.516219701534493 18.741498745895978 0 0 0
7665 51 1 7.996672734419247 3.236665228196877 19.590163863564904 0 0 0
7666 51 1 8.08444127201327 3.8514667265357163 20.982623853373912 0 0 0
8961 56 1 1.4205777906287058 18.643279114914193 17.478910000524333 0 0 0
4536 16 1 17.133182069508646 21.504725794012995 2.3431117121543155 0 0 1
4918 35 1 16.887038457979667 0.08985325329221401 1.3246428321137251 0 1 1
9504 4 1 5.4376546209637855 25.998434038088284 16.186001714979618 0 0 0
1004 59 1 16.06306547743133 12.501835164463213 17.397681624656446 0 0 0
8514 56 1 3.0630777911058193 14.023135732683606 18.649361992582023 0 0 0
7653 51 1 1.1942871250863747 3.6937461067602606 5.889206045639046 0 0 0
3716 27 1 18.054158709991146 14.848180260697951 14.5668084593304 0 0 0
4919 14 1 17.86669173253703 25.94194955892029 2.174520246339127 0 0 0
3936 46 1 17.667121644130333 17.41988064817737 2.6254932944971348 0 0 0
983 43 1 2.1955950316337747 10.999421238265475 0.8564796099004226 0 0 1
8281 55 1 1.6146441180957056 12.068377174990715 7.709106185869921 1 0 0
7750 52 1 3.08911468958307 5.243954259131477 19.277284416385303 0 0 0
7751 52 1 3.131887032328301 5.573460645067412 20.71226337653242 0 0 0
2818 21 1 16.507935078035214 5.8270264480274 10.283330470278738 0 0 0
700 5 1 15.160708694653742 8.412318305343229 16.79196027942729 0 0 0
9343 63 1 3.8071373901228656 24.2120487964833 20.793268420676878 0 0 0
8122 54 1 2.0659723415638354 9.794009658730598 17.98072249122993 0 0 0
7432 49 1 4.279148544390152 1.0726526769308564 20.875820531036027 0 0 0
4091 30 1 12.52377464147509 19.582503027851313 1.7321195818922452 0 0 0
8037 53 1 3.0616956803987856 8.296531119770272 10.529361355205095 0 0 0
8038 53 1 3.2545057357294445 7.642151125730079 11.905473804643483 0 0 0
8039 53 1 4.3011433802810535 8.27560087250455 12.825605280873843 0 0 0
8040 53 1 4.40210643052127 7.6640905296723245 14.198113322618473 0 0 0
8041 53 1 5.611090430395134 8.360767132439648 14.899069828693145 0 0 0
8042 53 1 5.839880678062309 7.877062001859901 16.349734175714243 0 0 0