LAMMPS data file via write_data, version 23 Jun 2022, timestep = 11112117

8487 atoms
2 atom types
8471 bonds
3 bond types
8455 angles
3 angle types
8439 dihedrals
3 dihedral types

0 36.89775039 xlo xhi
0 26.67072 ylo yhi
45.19697618108276 191.55462821900818 zlo zhi
0 4.604730410797281 0 xy xz yz

Masses

1 14
2 15

Pair Coeffs # lj/cut/omp

1 0.0914 3.95
2 0.1947 3.75

Bond Coeffs # harmonic/omp

1 449.5 1.53
2 449.5 1.53
3 449.5 1.53

Angle Coeffs # harmonic/omp

1 62.0967 114
2 62.0967 114
3 62.0967 114

Dihedral Coeffs # opls/omp

1 1.411 -0.271 3.145 0
2 1.411 -0.271 3.145 0
3 1.411 -0.271 3.145 0

Atoms # molecular

727 4 1 14.999782153970317 9.016619854068436 52.96276396376293 1 0 1
254 57 1 16.98707283864629 5.675190859004008 56.56337377802374 0 0 1
2308 17 1 5.390261903016436 26.52697772687737 47.75414381014465 0 0 0
4827 27 1 18.63313449535109 18.040960746331702 52.23961142803131 0 0 0
2323 17 1 15.638693397071444 1.5854703541014847 55.37949574880077 0 1 0
2552 18 1 17.24498669537085 2.757548310552792 48.995964155869046 0 0 0
305 2 1 4.1483218721927635 9.791332805408487 45.53904453704849 0 0 0
747 9 1 7.916167247881878 10.906109494926353 51.37422438659216 0 0 0
7180 6 1 8.6798716098167 8.181839310523213 56.334478950851974 0 0 0
248 57 1 13.348691304300756 5.028309767247847 52.01828192307413 1 0 1
1420 9 1 11.419824674318273 19.169432526316516 49.02346318422313 0 0 0
309 2 1 5.784697022866075 8.65749732551697 48.73231030711138 0 0 0
1427 9 1 16.12977603925338 19.765297685644885 54.69375024168612 0 0 0
15 25 1 8.838502717899457 1.9646482943574908 51.180848546794536 0 0 0
6877 53 1 10.502626793751297 5.777027972103176 58.5145704153824 0 0 0
2317 17 1 12.329498422538357 26.40435543244883 50.42752028785864 0 0 0
969 9 1 6.9087350589370935 12.276889769492154 49.51860066001502 0 0 0
8462 64 1 3.008724578536555 1.3155391442801714 49.2884974119847 0 1 0
3152 23 1 15.481332211346215 10.298626696421682 48.200363860046075 0 0 0
8246 63 1 2.265478635025757 24.618859672025152 49.76319396908302 1 0 1
1181 5 1 18.22735950784078 16.19328192568578 57.16773183672157 0 0 1
723 4 1 12.305969747894716 8.812837704339723 49.507720803272484 1 0 1
1642 9 1 10.217492786845341 17.864130945458033 47.103968385477515 0 0 0
322 2 1 14.007183070096648 9.380884110214032 59.100100654621215 0 0 0
3433 24 1 18.405232957298193 13.065146690206259 45.71814040066865 0 0 1
2313 17 1 8.671632774827287 24.778237457123343 52.69599186892168 0 0 0
721 4 1 10.566372470816974 9.473718621559374 48.161343583382326 1 0 1
255 57 1 17.74441582390293 6.20691155072897 57.86174626910339 0 0 1
2318 17 1 12.163899071429736 1.031061651515831 51.35237990404153 0 1 0
8469 64 1 6.949441707410845 26.571382242121615 55.93117602087011 0 0 0
8220 63 1 9.346477678162064 22.55892750179768 57.34018533708032 1 0 1
6867 53 1 3.0183286518375514 4.899758180280747 50.17752433393077 0 0 0
7935 62 1 0.32032681460520807 19.928825805217638 46.04893685412725 1 0 0
3679 28 1 18.46490855253821 18.16202912776473 47.63572823797774 0 0 0
1430 9 1 18.136051503354473 19.75283520640827 56.76006190077144 0 0 0
8215 63 1 6.464864701864496 22.198336070380268 52.637398842606665 1 0 1
1894 13 1 9.580555530559156 22.931496602033974 46.24189459993518 0 0 0
8216 63 1 6.126775132598516 21.923045032447106 54.16044114665894 1 0 1
7684 60 1 2.403034613261063 15.844175908760198 54.071604310349386 1 0 0
8466 64 1 4.76111087800973 26.661148227637753 52.72776695110504 0 0 0
8473 64 1 8.935701997774869 1.60093983771143 58.95311609931331 0 1 0
12 25 1 6.9870810893256134 3.754729389256583 49.790487215706335 0 0 0
7939 62 1 2.571269738994532 18.477101479383514 49.65712325309672 0 0 0
3476 27 1 16.44100037344359 15.287887915975531 48.5471283051307 0 0 0
2309 17 1 5.769123517940274 25.623144381265845 48.91586097100364 0 0 0
1666 10 1 7.414106001074949 19.877675930126433 50.10286215515553 0 0 0
4253 26 1 15.137426154553285 24.263243220261728 48.191842410601936 0 0 1
970 9 1 7.824154989073305 11.217345259163512 49.83039652630679 0 0 0
1180 5 1 17.854566442737713 15.850407865856349 55.76479517175305 0 0 1
1423 9 1 13.823118017410962 17.955815445527843 51.76558281767956 0 0 0
312 2 1 7.826914887778306 7.63751185097932 51.21849636532368 0 0 0
4251 26 1 13.25224108849165 24.94660767670422 46.66971379963212 0 0 1
6750 62 1 2.252372908067098 2.3493532056946442 55.98886927333557 0 0 0
1176 5 1 14.892510360695367 14.707392172203917 52.86128750214769 1 0 1
7179 6 1 8.099307168953723 9.14444862866033 55.41337750832312 0 0 0
8467 64 1 5.619007427360115 26.259371286026987 53.93735053482314 0 0 0
1421 9 1 12.500302273368952 19.145449571025456 50.123866476231115 0 0 0
2547 18 1 13.508281804818466 1.2708196565390988 45.38289710189466 0 0 0
8295 11 1 1.1751421032315617 25.6095508200826 54.82941777348288 1 0 0
319 2 1 12.939861317164732 8.521496520253507 55.56808699609553 0 0 0
4471 32 1 17.247896276137624 26.2302768019585 45.47706563332802 0 0 1
3894 13 1 16.394147166751054 19.956363976771666 50.035150831401126 0 0 0
2094 17 1 13.600207709904216 25.190898757562607 56.398252559785156 0 0 0
3155 23 1 18.26324545692867 12.355183856587695 50.03970916399633 0 0 0
1661 10 1 4.579290927666819 22.894871657840703 45.664170726450386 0 0 0
751 9 1 11.633830053436862 11.833533124992638 54.51242413210024 0 0 0
3999 30 1 3.7715406642783815 6.6185447679012155 57.29207171932911 0 0 0
8300 11 1 4.85244704619636 24.828900909633063 59.54088356858655 0 0 0
719 4 1 9.814174937032297 9.295131354631316 45.986962876677715 1 0 1
7944 62 1 6.500363980470019 17.61861450403349 53.87475866137575 0 0 0
1171 5 1 12.181419616604282 13.781326683178655 49.004570302477504 1 0 1
4250 26 1 12.695352944506796 24.625687677166027 45.37933073075112 0 0 1
3150 23 1 14.935639116292474 12.008454266145204 46.694861997078135 0 0 0
2553 18 1 16.452082057140842 3.4898691386019705 49.9816970335649 0 0 0
311 2 1 7.4668527341245445 7.142673715499184 49.86497396196065 0 0 0
6866 53 1 2.258603535651639 5.7926644147715605 49.27735497348163 0 0 0
2095 17 1 13.071912835381113 25.409123491830755 57.8135413758655 0 0 0
3893 13 1 16.23209792971228 20.822654828094493 48.83632635782243 0 0 0
967 9 1 5.38562131035293 13.289058546056795 47.65280534048908 0 0 0
6464 49 1 17.931915451516033 22.917521575676687 46.049623080139405 0 0 1
3021 19 1 18.29869870108375 8.06196522777032 51.5075520101665 0 0 0
722 4 1 11.04078057322442 8.318524683063536 49.041395306980455 1 0 1
1669 10 1 9.289008810176782 20.866686512894322 52.84428167651934 0 0 0
8465 64 1 3.437671390709448 0.6128807384341551 53.023160333062876 0 1 0
316 2 1 10.971685151477693 8.18946635725102 53.43476242143568 0 0 0
7945 62 1 7.155500522473094 18.878279210210746 54.43630269424409 0 0 0
6862 53 1 1.0631011012794356 7.849010879051118 46.01472216576237 0 0 0
246 57 1 12.645308462002701 4.668403792261132 49.79053703558018 1 0 1
2537 17 1 8.70311610972688 0.9346779905993883 46.8358422499117 0 1 0
731 4 1 17.439171062396387 10.047295044137817 56.468249049674284 1 0 1
1174 5 1 14.393349106619635 14.015960848939075 50.706957261658104 1 0 1
8244 63 1 0.887205382650117 24.01828742704096 47.54166024090234 1 0 1
11 25 1 6.0140462986921195 4.195746997003375 48.726787156804974 0 0 0
1428 9 1 15.77797596286962 19.202932066792737 56.05319630226791 0 0 0
3676 28 1 17.28614391601729 18.0763348815307 45.898933303063686 0 0 0
19 25 1 11.016503575934586 3.692047065324347 53.83206182424658 0 0 0
725 4 1 13.623485463150743 10.237872147820543 51.007298474908794 1 0 1
314 2 1 8.943353834335696 6.735660115921578 53.064682912909035 0 0 0
8021 43 1 1.41580226516529 21.21087270204789 55.24846927204504 0 0 0
13 25 1 6.492403648212208 2.3629583944179693 50.2193123400752 0 0 0
23 25 1 13.62663677541004 3.391451505269172 57.5237010508209 0 0 0
3149 23 1 13.997237430615133 12.333735724194362 45.68350140514376 0 0 0
1177 5 1 15.987916743598698 15.193121204921233 53.75153202504973 1 0 1
5569 13 1 13.329560915493563 24.06938372276739 52.57430242606447 0 0 0
3474 27 1 14.491316531659692 16.833095188005256 47.73459622066508 0 0 0
9 25 1 4.640695812481382 3.451439798033791 46.8530435762717 0 0 0
756 9 1 13.585183029833502 12.965530371324032 59.0683694045405 0 0 0
1667 10 1 8.710649449470464 20.542537391741128 50.558306936011164 0 0 0
7172 6 1 2.6691573084591282 11.04893499377199 50.11178917174708 0 0 0
6871 53 1 5.205062834507941 3.548392330079948 53.585413174364405 0 0 0
308 2 1 5.039002038737386 7.5927426527012996 48.0076670988747 0 0 0
3895 13 1 16.86528907275889 20.70760635919572 51.310656391681555 0 0 0
3022 19 1 18.33303585828443 8.665172311873674 52.86701862030185 0 0 0
307 2 1 5.238958585926327 8.082957788726315 46.556377939777434 0 0 0
3151 23 1 14.200760173734881 11.113412218070401 47.740050827811196 0 0 0
1175 5 1 15.369978831085236 13.61600522726417 51.86079431157103 1 0 1
7947 62 1 8.481766323208413 19.45157821771048 56.512047849887416 0 0 0
1668 10 1 9.547025437461304 19.97933300806046 51.710162979407265 0 0 0
7127 34 1 0.7102507958455925 5.28792754277568 57.969099319760446 1 0 1
243 57 1 10.43975830893673 3.827860592882577 48.158040617048755 1 0 1
6864 53 1 0.881726154430493 5.807674946210784 47.145244442027646 0 0 0
3153 23 1 16.17091211257875 11.64444573698022 48.493115148283856 0 0 0
2093 17 1 12.604526066476033 25.935835552730147 55.37691336413623 0 0 0
732 4 1 17.769757330332425 11.4365808417229 56.82742155218501 0 0 1
252 57 1 16.44930544980198 6.198185905082312 54.3775453528918 0 0 1
4257 26 1 17.737642409268528 25.02362286875676 51.307847217406646 0 0 1
1665 10 1 6.820502128496771 20.716565250200144 48.993218892662235 0 0 0
318 2 1 12.098453901344039 7.266248863957538 55.6245138119003 0 0 0
3148 23 1 12.914294959507048 11.36590669813213 45.655628612209526 0 0 0
1392 7 1 8.441673457115957 15.949047983106372 50.18396568052538 1 0 1
6876 53 1 9.377042969967771 4.793461261264807 58.180593156558054 0 0 0
1731 10 1 12.488954486559303 22.17240767467767 56.6441294685613 0 0 0
251 57 1 15.246101069637641 5.738513289966659 55.22129808774995 1 0 1
21 25 1 12.478388184893605 2.5664734833691507 55.585085248701674 0 0 0
6872 53 1 6.288331102299798 4.521469886435677 54.05810469884662 0 0 0
3058 20 1 17.067465584120164 6.852329288988137 48.62744729687532 0 0 1
7651 58 1 5.236066752862363 13.820556953431298 52.204963132246164 0 0 0
14 25 1 7.715959916402121 1.4628352289100772 50.281198043914884 0 0 0
3087 21 1 17.879277878404626 8.221781916571771 45.5490404932365 0 0 0
3088 21 1 18.046144944162727 9.573169537002567 46.34085881072221 0 0 0
4252 26 1 14.519392949360602 24.12879427451691 46.73811917694073 0 0 1
1173 5 1 13.050211785237522 13.639534056320242 51.35591819499593 1 0 1
8471 64 1 8.928885940974913 0.11228820986331402 57.403796859874845 0 1 0
1893 13 1 8.175492321935852 23.282058155381502 46.41483830645932 0 0 0
966 9 1 4.345238855556912 12.918239846829202 46.50817603048753 0 0 0
3156 23 1 18.591250317349097 12.09500460804708 51.62576129782161 0 0 0
6865 53 1 1.6390648886697778 5.090092843638144 48.11954689175586 0 0 0
1895 13 1 10.379428887106041 22.14490650489097 47.33165620500055 0 0 0
8245 63 1 1.1756329954751703 24.91282599596538 48.76416563832528 1 0 1
1390 7 1 7.139840527025662 17.050737725122854 48.21504509483982 1 0 1
6869 53 1 3.405789295129326 5.076316499211194 52.4241223577926 0 0 0
8470 64 1 7.8792471817775525 1.0203903051639494 56.71099508496678 0 1 0
1388 7 1 4.829330257579686 17.51045901901499 47.214311999571514 1 0 1
240 57 1 8.631972264338854 6.401445864039551 45.944031770606905 1 0 1
7169 6 1 0.8881569203949529 11.60884343504615 47.462764727536964 0 0 0
1898 13 1 12.673272248142858 22.65103887976368 49.20935359451832 0 0 0
1425 9 1 14.077912209316729 19.407491954443753 53.67338347418388 0 0 0
7946 62 1 7.578650965378448 18.529877598847527 55.802126747561466 0 0 0
241 57 1 9.067627727342412 5.653326992680319 47.219452311648325 1 0 1
20 25 1 11.289538381085249 2.449510885499799 54.598731511352945 0 0 0
7399 56 1 2.3060581511898457 12.593820703819558 56.4293029899233 0 0 0
1426 9 1 15.401842761629355 18.850819133871237 53.91007678813044 0 0 0
1672 10 1 12.100517931699898 21.200125846363733 55.62305408951129 0 0 0
3478 27 1 16.910858478661723 16.633783889762206 50.664979539486374 0 0 0
1663 10 1 4.8092196562772545 21.461144522293708 47.5987574900244 0 0 0
2549 18 1 13.775653337492844 2.3644235852380953 47.29623428799875 0 0 0
3475 27 1 15.203263338321017 15.490492266336695 47.76795813916321 0 0 0
3473 27 1 13.712434828220365 16.971690448037617 46.46597761829795 0 0 0
3057 20 1 15.932942793996991 6.477682800500084 47.646495092594215 0 0 1
1429 9 1 16.70308545628715 19.472177047628122 57.09993232751999 0 0 0
2307 14 1 4.135364631547865 26.14926126288139 47.05382413057581 0 0 1
7396 56 1 1.5930500265141305 11.97486217514576 52.99017252362155 0 0 0
2538 17 1 9.532379187704079 26.61066670708406 47.70541671628977 0 0 0
7942 62 1 4.588882322056008 19.016854846332766 53.046704801380876 0 0 0
7683 60 1 1.4292006333431335 16.106419759650368 53.00627482446233 1 0 0
3054 20 1 13.416104844881321 6.017818654871826 46.445109606951725 0 0 1
1179 5 1 17.163569223272834 14.606387235861527 56.02074685228404 1 0 1
8459 64 1 0.9101070359709531 2.2186308431351325 46.894583433135146 0 1 0
7170 6 1 1.6700485279820343 10.304515836039537 47.90730143609293 0 0 0
8024 43 1 4.4845443722288 19.549088146842152 56.753233660506666 0 0 0
6753 62 1 4.9752127626338085 1.8601023148962947 58.1405409886751 0 0 0
3059 20 1 16.406308601133862 7.500293568554164 49.796218796879224 0 0 1
244 57 1 10.048265866938578 4.758488336646348 49.35767191911118 1 0 1
1389 7 1 6.20246704042521 16.724805128409866 47.01559225947397 1 0 1
2091 17 1 10.022269254767558 25.537010333517006 54.53430388351836 0 0 0
7126 34 1 0.9288917039693119 5.277858999737684 59.509512580133105 1 0 1
8025 43 1 4.643240342143337 21.055175995398645 57.050223583786696 0 0 0
1662 10 1 4.8903948180539 22.996106164199798 47.16101869670059 0 0 0
10 25 1 5.835747691965451 2.9805335941751965 47.67357300088224 0 0 0
1170 5 1 10.99932486673716 12.988010598468795 48.516680211648406 1 0 1
242 57 1 9.759163762144096 4.375667712152249 46.84587051275117 1 0 1
7182 6 1 9.084247101597617 10.745343870448213 56.68280757418006 0 0 0
2320 17 1 14.486875321072917 1.8182649409837166 51.958352370606015 0 1 0
7690 60 1 6.7460921033004 16.498774138158154 59.09009478844349 0 0 0
6873 53 1 6.6208603938287744 4.4934331769495515 55.559690686897284 0 0 0
7659 58 1 10.623830191411052 14.390624070765517 58.19435806087051 0 0 0
17 25 1 9.354020705132662 2.014540196346187 53.633991871590254 0 0 0
7938 62 1 1.96058348365044 19.871782621022078 49.469163759811074 0 0 0
730 4 1 16.328964919058713 9.959773930379008 55.3729005162206 1 0 1
16 25 1 8.402928531101285 1.4995237349064905 52.60710600883152 0 0 0
5046 13 1 16.600916913625067 24.874690334398117 55.92530244927681 0 0 0
8252 53 1 10.592134433866594 23.666101962485925 59.2218440118505 1 0 0
2098 17 1 15.24553617969334 25.72760117508307 59.680000308092865 0 0 0
753 9 1 13.879190005717717 12.448596669155604 55.501782055041495 0 0 0
8468 64 1 5.941709291109571 0.5036673410434572 55.053100505396664 0 1 0
728 4 1 15.602442187923767 10.376072129442969 53.03233514485 1 0 1
7175 6 1 5.019982098340778 8.953252974829866 52.42910986889698 0 0 0
2312 17 1 8.493366576547999 24.509316318152703 51.19342928973984 0 0 0
306 2 1 5.2425653368477905 9.547774215433739 46.498530168115536 0 0 0
7937 62 1 0.8197853248201765 19.503616590331404 48.571860400619634 0 0 0
2536 17 1 9.54494647724786 1.3022909586333655 45.62876161526561 0 1 0
4976 13 1 18.01331375948821 25.092473622233754 56.396803538803496 0 0 0
1396 7 1 10.196890204687993 17.233442647908788 53.31969374996767 1 0 1
2097 17 1 15.078008653705941 0.004037800423395651 58.52679910863317 0 1 0
3472 27 1 13.129010476417983 15.699332950527193 45.84563589906921 0 0 0
726 4 1 14.097910739146531 8.907165007729697 51.674234142406675 1 0 1
2315 17 1 10.883442216828632 0.30175204746703754 48.22282184214733 0 1 0
7655 58 1 7.04157808649608 14.456592769381631 56.000275595656326 0 0 0
7168 6 1 0.6625921820724485 11.615465507819671 45.913917869528234 0 0 0
3929 13 1 15.633921811931877 20.16514656421205 47.49192378289179 0 0 0
7687 60 1 3.981161992959352 15.668234041481034 56.45763240409681 0 0 0
253 57 1 17.236480792275074 6.665511088671097 55.57873923855306 0 0 1
1896 13 1 10.345653463374694 22.721731810117763 48.72744836915405 0 0 0
3055 20 1 13.880164506658096 7.308917492859484 47.00293423547023 0 0 1
249 57 1 14.23988178936137 5.764274960174244 52.948813543489265 1 0 1
2316 17 1 11.28315993451213 26.008623117514833 49.36169748025929 0 0 0
8472 64 1 9.903343784877352 1.1128127619285477 57.997445022037304 0 1 0
4002 30 1 2.313384726685859 6.702785486238428 54.805407024035134 0 0 0
729 4 1 16.63263509998892 10.774595967905736 54.08986416644856 1 0 1
6748 62 1 0.7414893578283066 2.655611257864387 54.08405131534918 1 0 0
7936 62 1 1.2522797911435806 20.124008853545465 47.26583260233526 0 0 0
750 9 1 10.639217345991085 12.383204695103604 53.566664221082476 0 0 0
8248 63 1 3.594011391755524 23.08685647802815 51.05649313544767 1 0 1
7400 56 1 3.6570011605500867 11.920089191721821 56.454661081529736 0 0 0
320 2 1 13.687694378580689 8.703171436994003 56.828321241918665 0 0 0
3053 20 1 12.381504808006236 6.104330751189629 45.343731389840464 0 0 1
7173 6 1 4.115343055085383 10.974531786708646 50.69565543518795 0 0 0
3927 13 1 13.640140000255608 21.08670338424965 46.121760338811626 0 0 0
8022 43 1 2.628209692996665 21.1507721003637 56.08391881758479 0 0 0
6863 53 1 1.8133333383535557 6.586771068249913 46.213310178030866 0 0 0
748 9 1 8.863114702419246 11.825035233240545 51.92727857992379 0 0 0
2314 17 1 10.137165702073743 24.766419540979673 53.185097339334696 0 0 0
1640 9 1 8.427247488174423 18.78707598429592 45.49240779938542 0 0 0
1167 5 1 9.598133169075789 14.848922561804795 45.585074891877525 1 0 1
8 25 1 5.180721481988816 4.394652076451768 45.81690025437032 0 0 0
8461 64 1 1.7673386876665593 2.204394892607788 49.156817397736745 0 1 0
1402 7 1 13.712774353937437 17.347526777943745 58.20366009730297 1 0 1
968 9 1 6.403540951657427 12.168685136398656 48.03172324577658 0 0 0
8460 64 1 0.917178329662403 1.4913719279413655 48.18680011153979 0 1 0
78 10 1 13.462949554119314 21.455924210443886 57.555062986833164 0 0 0
7658 58 1 9.37167650498533 14.641765010430616 57.70206359556006 0 0 0
8020 43 1 1.5969209426961062 20.1456079545573 54.11873638105149 0 0 0
7647 58 1 1.5767529522944441 14.55864814550961 48.9493136801146 0 0 0
7176 6 1 4.9157579099378195 10.06168103186639 53.35105465098014 0 0 0
1641 9 1 9.511799349553563 19.04278622743174 46.47591108253077 0 0 0
749 9 1 9.33060888140402 11.67474657941317 53.3876164685349 0 0 0
4095 30 1 1.0073240127363072 7.087382102876696 54.29712185051955 0 0 0
1387 7 1 3.9659400993170593 17.342100518660914 46.11997288962208 1 0 1
6293 13 1 14.773011658657826 23.629964561951358 52.471643665852426 0 0 0
1404 7 1 15.36808032771537 16.753211261588206 59.711662003303154 1 0 1
8217 63 1 7.339385067988584 22.248675112036846 54.98157054607168 1 0 1
1639 9 1 7.5471978034072835 19.993598405466305 45.67557449407077 0 0 0
8019 43 1 0.8824801670932032 20.571461218457458 52.848601126251936 0 0 0
8026 43 1 5.89923839754175 20.954449654620248 57.85130679850812 0 0 0
247 57 1 13.6384504449378 5.276676819375783 50.64989328739898 1 0 1
1168 5 1 9.793684675518646 14.652137200121429 47.123182079440916 1 0 1
7657 58 1 9.344981030185222 15.558349321643327 56.45588288057765 0 0 0
1182 5 1 17.805579575766924 15.179280708644676 58.20522339894207 0 0 1
4610 10 1 15.052198460120016 21.445075623714516 59.48133495141983 0 0 0
7174 6 1 4.167154695948326 9.575052435296428 51.3245052345463 0 0 0
1670 10 1 10.46581850869769 20.768470243618452 53.713302763491015 0 0 0
3154 23 1 16.920363206617896 11.656896738007335 49.78639478809848 0 0 0
7689 60 1 5.588526226447421 16.678254900748463 58.08066143035486 0 0 0
2306 14 1 4.124767975929715 0.2660231163025695 45.78031673666078 0 1 1
3928 13 1 14.110932926249443 20.164225786587377 47.278146131897266 0 0 0
1166 5 1 8.12926889533163 14.537572042656034 45.62549553225955 1 0 1
3998 30 1 4.725664967235201 6.746369625350644 58.496424133634136 0 0 0
7948 62 1 9.467115307734652 18.800162520170915 57.41735326249889 0 0 0
1399 7 1 12.365934359753107 16.72251093562505 56.2889319282406 1 0 1
7402 56 1 5.020655748584253 10.999431442490419 58.417602962056115 0 0 0
7652 58 1 5.325634310698058 14.151533736664227 53.63986012425411 0 0 0
2326 17 1 18.495353258973605 2.7827194138286173 57.461254522277585 0 1 0
7941 62 1 3.7584924046091106 19.408545926020132 51.841247681802926 0 0 0
2551 18 1 16.160607170558123 2.2091767101529154 48.13941223005717 0 0 0
755 9 1 14.20378240255125 12.585633383403083 57.763431693875916 0 0 0
2092 17 1 11.164826431705952 25.20536162440574 55.60719552879715 0 0 0
1178 5 1 16.55838348354475 14.18949976197643 54.67889910713309 1 0 1
3896 13 1 18.12619689249383 21.37359631752823 51.036507732815274 0 0 0
310 2 1 7.219386648492778 8.234515518016794 48.945396811609264 0 0 0
7646 58 1 1.3836194918325797 15.804671607148212 48.14964743985915 0 0 0
1172 5 1 12.100557520439638 14.335437914607787 50.47913793458905 1 0 1
8027 43 1 5.611055710367963 20.07330046093428 59.09109182000132 0 0 0
6749 62 1 1.7976185302466832 3.227945320036274 54.98955845660919 1 0 0
3056 20 1 14.647670175560545 6.935368977449479 48.29363884986133 0 0 1
22 25 1 12.18749063765884 3.0885908286685426 56.856873693532705 0 0 0
8219 63 1 8.38251551621486 23.640585222720997 57.02816234744569 1 0 1
3997 30 1 5.819994491258536 7.746678528497312 58.263520854486586 1 0 0
1419 9 1 10.566962498137359 17.92069969079859 48.70198166003671 0 0 0
7688 60 1 4.442657873058318 15.670916132384164 57.865714112305845 0 0 0
2319 17 1 13.271991150489693 1.0808428219198585 52.44380941923903 0 1 0
7686 60 1 2.463630478011317 15.954117819022766 56.57947733959365 0 0 0
8463 64 1 3.544017123868181 0.8709225753166543 50.675998227400854 0 1 0
315 2 1 10.045263771887196 7.691139994144444 52.45592993548824 0 0 0
7951 62 1 11.484712452676575 19.22599274791633 59.125009761506746 0 0 0
5195 12 1 1.7096595715076424 8.735475500391528 59.59917651901891 0 0 0
7397 56 1 1.993791042922436 11.668977504894919 54.35943193222175 0 0 0
878 13 1 18.345621743277714 24.47302368517436 57.75756156023351 0 0 0
1671 10 1 11.217281149332461 21.689399880631086 54.500818845688 0 0 0
2548 18 1 14.61891958152341 1.5359886044841455 46.37948329489097 0 0 0
2324 17 1 16.93846471656297 2.3587443332189104 55.3299346137069 0 1 0
7178 6 1 6.781791800087434 8.86644176837786 54.60224748223682 0 0 0
7644 58 1 0.6086848421974261 16.740310970019895 45.97213645087599 0 0 0
1400 7 1 13.629504599855581 15.871102776409673 56.19893384290589 1 0 1
2687 13 1 15.784496765060242 23.076542789575544 54.6782460062639 0 0 0
7685 60 1 2.02295458139108 16.657260081024106 55.34950749540495 1 0 0
965 9 1 3.867019640473716 14.075063662396653 45.62880720092578 0 0 0
1398 7 1 11.880714514082044 17.472891518038832 55.133854061990235 1 0 1
5927 44 1 2.425228164018935 18.91009323205254 59.10809293483058 1 0 0
245 57 1 11.238834998664364 5.024256994075592 50.3983059490311 1 0 1
7649 58 1 3.999259810093091 14.737420720318337 50.20917664006912 0 0 0
4001 30 1 2.79502242882019 7.89253730094857 55.54956586898942 0 0 0
5117 30 1 1.0034710369813309 7.510979007575631 52.88967417408178 0 0 0
1897 13 1 11.277653697148699 22.275123821053807 49.78989560680317 0 0 0
323 2 1 14.985082003152796 8.22810561181346 58.95740805224632 0 0 0
1424 9 1 13.673178026550863 19.413767116461443 52.170165685618954 0 0 0
2322 17 1 15.177711334917461 0.8494792950207575 54.13611722726735 0 1 0
7654 58 1 6.725929658897457 13.142457550439898 55.29012950392938 0 0 0
26 25 1 15.897542922223549 3.268455382745957 59.505099187202916 0 0 0
2096 17 1 13.509671710583888 0.10456119192656933 58.387434137464226 0 1 0
4000 30 1 4.111131311838042 7.610846355129385 56.32526649597317 0 0 0
6240 48 1 1.4308061275089048 22.673911664165157 58.82840121051097 0 0 0
250 57 1 14.341210999269846 5.031623201153257 54.23262321228333 1 0 1
4258 26 1 17.578393381980348 26.3985861760447 51.746727680171645 0 0 1
4256 26 1 17.267886501257376 24.908476633601886 49.89689141718283 0 0 1
8464 64 1 2.704870553758196 0.5187064166836645 51.80218006718846 0 1 0
1394 7 1 9.19898059798376 15.153584845710338 52.18931430337055 1 0 1
24 25 1 13.845778635613605 4.737187735573094 58.27202793009747 0 0 0
7949 62 1 9.136745399867216 18.873769742855657 58.863493517658654 0 0 0
8251 53 1 9.599611470188552 22.620641766347767 58.77007763447808 1 0 0
5626 56 1 1.5152786001480314 13.96086774029403 59.36937400995771 1 0 0
7656 58 1 8.327681075760967 14.998968491284092 55.37537551491923 0 0 0
8297 11 1 3.299194503639701 25.34465792684532 55.96460511154286 1 0 0
6875 53 1 8.20348048149721 4.986612262570419 57.342573272382694 0 0 0
8294 11 1 0.630122997145492 25.075935077836448 53.53501483377768 1 0 0
8023 43 1 3.227545421203375 19.770350323761157 55.967263629874594 0 0 0
724 4 1 12.396475427811339 10.136259177776502 50.13048583290905 1 0 1
8298 11 1 3.684566868711226 24.75976997563122 57.27640664242081 0 0 0
6870 53 1 4.294285612989268 3.9657531208790497 52.420922814248314 0 0 0
6580 13 1 15.420216587665522 24.28167116585588 53.7240047780675 0 0 0
2550 18 1 14.737886445321914 2.736728366301565 48.41648308134581 0 0 0
7403 56 1 5.967925636634932 12.214465603237239 58.538100758183504 0 0 0
2321 17 1 15.35328898717033 1.9894992549659796 53.17893450135452 0 1 0
717 4 1 8.584443322350337 11.223086194124777 45.3560933674746 1 0 1
754 9 1 13.12653855119385 12.65010602320535 56.76745151759856 0 0 0
7650 58 1 4.810303804629537 14.988234018968924 51.470743595681796 0 0 0
8218 63 1 7.162955208436884 23.372302536927112 56.03155476640918 1 0 1
7184 6 1 10.196192057688345 10.60236674484 58.9746273144514 0 0 0
2721 13 1 13.548510310272313 22.580008754726915 50.46659038295064 0 0 0
1401 7 1 14.361272886432197 16.271734671080544 57.40682038980228 1 0 1
18 25 1 9.891220891790692 3.294833342557274 52.957764672456115 0 0 0
7645 58 1 1.0193864962343215 15.530805188644761 46.73176882340373 0 0 0
7398 56 1 1.4347453533647525 12.854675910512299 55.152455634852174 0 0 0
8249 63 1 3.1885680554115194 23.291920777981336 52.5001271829838 1 0 1
1422 9 1 13.003228902637474 17.821993087544122 50.45725208201826 0 0 0
8214 63 1 5.199430316746287 22.40416567732789 51.99341256371105 1 0 1
8299 11 1 4.703991135929309 25.416324990968857 58.09455582164212 0 0 0
6754 62 1 5.052352919638105 3.2501201651087173 58.501915322489744 0 0 0
2554 18 1 17.42921743351021 4.439919725165156 50.71357925132273 0 0 0
1520 10 1 14.2354682478909 22.26153335919112 58.593675913704296 0 0 0
6868 53 1 3.5458520143107393 5.8703176828179044 51.19876166195924 0 0 0
313 2 1 7.8819517816325115 6.412784681814404 52.104819634331065 0 0 0
8250 63 1 4.182871037196568 22.312794403873692 53.141717125767244 1 0 1
1391 7 1 7.489566841933699 15.778985659755236 48.99844217436546 1 0 1
752 9 1 12.942825570276858 12.461387538531174 54.283474883885226 0 0 0
1531 13 1 16.75935547823685 23.440290791810074 55.7564033673471 0 0 0
6874 53 1 8.083516887667962 4.548412285558737 55.90488400118481 0 0 0
7181 6 1 9.593359600515292 9.33931790382428 57.111201301454905 0 0 0
321 2 1 12.958615486061342 8.97603031557308 58.12971646776123 0 0 0
2310 17 1 7.002346915348097 25.001686434722703 49.299065177248345 0 0 0
1395 7 1 9.834493092589923 16.487243364082094 52.097458330394396 1 0 1
1393 7 1 8.734832269442917 14.70404100379218 50.88384174881501 1 0 1
7653 58 1 6.465770702249359 13.228332841510275 53.90312770974187 0 0 0
718 4 1 8.987254700006046 10.45291938064758 46.58288900245342 1 0 1
2311 17 1 7.129780537342347 25.120477446045 50.78524597525649 0 0 0
2325 17 1 17.471938663838845 1.9731458569878888 56.70920480024149 0 1 0
1169 5 1 10.050249260343348 13.25559863021577 47.306105982014294 1 0 1
8296 11 1 2.014134086376946 24.558594821243098 55.59478852100733 1 0 0
1664 10 1 5.3260577722951 21.139330971593715 48.98720258351611 0 0 0
720 4 1 11.04498659053247 8.94081184162499 46.77891714982052 1 0 1
6751 62 1 3.5912706054993864 2.879010340018385 56.51900807538459 0 0 0
7171 6 1 2.4182291738633195 9.988050365228844 49.155437746964424 0 0 0
7943 62 1 5.67332800352866 18.086002926751043 52.5607444125175 0 0 0
3477 27 1 16.333029180530374 16.601008929478354 49.26400346698411 0 0 0
317 2 1 11.336568131067462 6.975847040600295 54.41242138710287 0 0 0
7940 62 1 2.9538655944292334 18.354626635441697 51.20813059741028 0 0 0
6878 53 1 10.044849204694453 6.719972298422796 59.58357294267686 0 0 0
4255 26 1 15.89374126767275 25.613950409325955 49.97596106754941 0 0 1
7183 6 1 9.738925348460988 11.473928014834184 57.80320568749524 0 0 0
2422 27 1 18.33232561335615 16.381202579622066 50.50859882056636 0 0 0
6752 62 1 3.584969651453811 1.9301198735273402 57.73646098875078 0 0 0
7648 58 1 2.5079510779295733 14.692436626924133 50.18199365126254 0 0 0
3060 20 1 17.415975796711535 8.578214112415793 50.31560399639227 0 0 1
1397 7 1 11.31894718458902 16.542245943473738 54.09252495008234 1 0 1
7177 6 1 5.889726497999139 10.003195823166786 54.52574147742486 0 0 0
6108 13 1 12.600196439792676 23.31631141258411 51.50145212992418 0 0 0
8247 63 1 2.5639713701933653 23.148255544070725 49.9190435387347 1 0 1
7401 56 1 3.687092857478197 11.35879927550845 57.886411674427734 0 0 0
25 25 1 15.014769870008285 4.562846933379447 59.2072607091964 0 0 0
4254 26 1 15.369235883700446 25.68566664897859 48.457744689858956 0 0 1
758 9 1 15.985881160772976 12.603185320751626 59.63136531488367 0 0 0
2555 18 1 18.320816745689356 3.351616905588319 51.32662066768449 0 0 0
5926 44 1 0.9343340270571282 19.159937043562408 58.67720862529187 1 0 0
3996 30 1 6.823886128822316 7.357619758438436 59.401791597674766 1 0 0
6531 39 1 1.0572871379499413 26.297362836743797 59.15358065741698 1 0 0
1403 7 1 14.2192261233919 17.72737021867405 59.56703782105176 1 0 1