LAMMPS data file via write_data, version 23 Jun 2022, timestep = 11112117

8487 atoms
2 atom types
8471 bonds
3 bond types
8455 angles
3 angle types
8439 dihedrals
3 dihedral types

0 36.89775039 xlo xhi
0 26.67072 ylo yhi
38.69449726420517 198.0571071357827 zlo zhi
0 5.013894701112513 0 xy xz yz

Masses

1 14
2 15

Pair Coeffs # lj/cut/omp

1 0.0914 3.95
2 0.1947 3.75

Bond Coeffs # harmonic/omp

1 449.5 1.53
2 449.5 1.53
3 449.5 1.53

Angle Coeffs # harmonic/omp

1 62.0967 114
2 62.0967 114
3 62.0967 114

Dihedral Coeffs # opls/omp

1 1.411 -0.271 3.145 0
2 1.411 -0.271 3.145 0
3 1.411 -0.271 3.145 0

Atoms # molecular

1 25 1 7.809818991320394 2.1450428027544195 43.919583307792216 0 0 0
2 25 1 8.61724573364971 2.8744801806802833 44.99574711158457 0 0 0
3 25 1 9.407518204578592 2.1053226924951427 46.02483070890286 0 0 0
4 25 1 10.032547244001762 2.860798383533327 47.11846382745305 0 0 0
5 25 1 10.835048211562565 2.0859517747032994 48.17282971846698 0 0 0
6 25 1 12.00343328508411 2.673031744646994 48.92004905895133 0 0 0
7 25 1 12.879550634712766 1.6996751070161071 49.65427503101361 0 0 0
8 25 1 13.76348055424257 2.619716981035545 50.51737332871804 0 0 0
9 25 1 14.845212891396992 1.8581819622211382 51.24470676564056 0 0 0
10 25 1 15.812241480888972 2.6418996602094027 52.14687696203638 0 0 0
3895 13 1 12.755970539308418 20.451789793587604 40.730789289327184 0 0 0
267 1 1 17.057439702380332 4.164732903501478 49.255652883572935 0 0 0
5935 44 1 2.078035784990546 17.970207430834677 52.75447616583813 1 0 0
3068 21 1 16.185437785151667 8.381562846526212 38.92209555441647 0 0 0
261 57 1 7.0462973689939075 4.6935509909547255 39.7215311030542 0 0 1
1874 13 1 18.426152915242543 21.97148966601516 50.544675156629815 0 0 0
2311 17 1 6.3867138242425066 25.353184840761646 43.206841682782155 0 0 0
980 6 1 13.126356529596428 12.932399571313866 45.66140682871138 0 0 0
1860 10 1 5.892323521063414 19.52379392705653 41.62016846346165 0 0 0
5183 12 1 1.9572932852228322 8.580960970179921 52.893141132600434 0 0 0
222 25 1 4.8768615396819 2.879996329490615 41.56807232786895 0 0 0
223 25 1 6.132324976006038 2.279809096187623 42.204291343397934 0 0 0
224 25 1 6.677829183114945 3.0292811094084597 43.4535346567223 0 0 0
262 1 1 12.36898382925641 4.753949789638506 45.24795540909396 0 0 0
263 1 1 13.557899211322901 3.9604965178344 45.87119998216847 0 0 0
264 1 1 14.421805378442041 4.870222133579221 46.582953185939516 0 0 0
2318 17 1 15.278548874245514 26.51435449757484 47.30510767313229 0 0 0
6751 62 1 1.4034278216227294 2.756326734578393 47.39293966996992 0 0 0
2320 17 1 17.02487695308516 26.352740491393405 49.145258542811284 0 0 0
4264 26 1 14.577517733649183 25.110932730268193 42.6412977049497 0 0 1
7642 58 1 1.7882187734652095 13.150351117404528 42.88268008980665 0 0 0
3450 27 1 14.74062252033432 16.30475652397121 42.511717812293064 0 0 0
3896 13 1 13.73290730571705 19.63222799719511 41.58064115525607 0 0 0
8255 53 1 6.525944042826639 22.06567769725524 48.21324758081637 0 0 0
6236 48 1 1.8854990010069197 22.260931078320656 52.63361295152466 1 0 0
2319 17 1 16.312123745341776 0.5955849847030446 48.1262975521753 0 1 0
8003 43 1 4.116909651425694 19.875132660777986 50.647358923514844 1 0 0
295 1 1 9.046652190931427 5.136513768206018 41.38326193958913 0 0 0
296 1 1 10.09749310834439 4.353463002935826 42.12830445746044 0 0 0
297 1 1 10.800217138665479 5.025979087817473 43.224707672399305 0 0 0
298 1 1 11.753280458067918 4.108039124542494 44.08809471573864 0 0 0
299 2 1 10.960236889570888 6.371695465660894 47.91564129290853 0 0 0
300 2 1 12.108642731169784 7.066216875169829 48.65754723919103 0 0 0
301 2 1 13.070308247704244 6.221412979187938 49.50780923243286 0 0 0
302 2 1 13.999418197726468 7.073266412494947 50.30350545315707 0 0 0
523 2 1 17.079149229430616 8.681123639150208 49.07063023703015 0 0 0
1642 9 1 8.975036917826973 18.106886278693942 40.68907149395347 0 0 0
3451 27 1 15.59676276201069 15.416012890074848 43.38525048042903 0 0 0
3060 20 1 14.90179616148565 6.974432339150415 42.43416365598652 0 0 1
8256 53 1 7.203792523727133 23.123871402484813 49.1866374425461 0 0 0
515 59 1 3.9668572446098946 6.176771578678344 40.84628415500871 0 0 1
8464 64 1 12.76185288007165 0.6539327536878705 54.37279117503681 0 1 0
7938 62 1 4.9258302880372415 17.646635378405808 46.73806089226055 0 0 0
737 4 1 7.976771735392715 8.11481477011876 40.2613075110173 0 0 1
8453 64 1 3.3181942143398775 0.0076589329347113945 44.71230495504751 1 1 0
739 4 1 9.673557044932478 8.35996945887913 42.183578349351784 0 0 1
7643 58 1 2.7251625655586658 13.977661127177258 43.66883871763154 0 0 0
516 2 1 4.727446233685723 7.147674800774525 41.86407346197294 0 0 0
517 2 1 5.583744620238012 6.279045552529311 42.723560920479834 0 0 0
518 2 1 6.555342033948977 7.158272898875812 43.38449675065497 0 0 0
519 2 1 7.362369242968148 6.315463568461739 44.25674992161706 0 0 0
520 2 1 8.321708460677561 7.128299827075754 45.17419579411897 0 0 0
521 2 1 9.194181327654185 6.28257148312172 46.142370171688995 0 0 0
522 2 1 10.163702601072487 7.180920298879911 46.862506736304624 0 0 0
2099 17 1 17.14906267563901 25.145365277947082 53.72729169127673 0 0 0
4263 26 1 13.922780546571325 24.208319845701205 41.63464360842064 0 0 1
4274 33 1 17.074191543722915 0.3657619311069796 40.562821636606785 0 1 0
4261 26 1 12.442812436760429 23.9764753365201 39.61129990099416 0 0 1
7945 62 1 11.363197696999695 18.31654816554403 52.553788218176436 0 0 0
1873 13 1 17.73111826463558 22.744570432895106 49.446858158538106 0 0 0
738 4 1 8.914065623648037 9.00752939918956 41.092164430809255 0 0 1
6531 39 1 0.9192240564207868 1.121767784711394 51.844200373870905 1 1 0
3057 20 1 12.315700424965108 6.496443968151 39.68310332008487 0 0 1
3022 19 1 16.912725481493084 7.029093039551673 44.18532813182888 0 0 0
756 9 1 17.509268397859827 11.46032167148905 54.376363193835175 0 0 0
8456 64 1 5.778149729089115 0.9906101630995717 47.41352223279485 0 1 0
7163 6 1 1.3707882888997445 8.631327192807392 43.07817330692597 0 0 0
2307 14 1 3.1730764750356406 25.11728956357031 39.24503465535752 0 0 1
743 2 1 13.348125249674402 8.58652031658604 45.57391038156442 0 0 0
744 2 1 14.48614051184823 9.474625074077592 46.20044332019274 0 0 0
745 2 1 15.243006381404067 8.588013544415901 47.2223180497683 0 0 0
219 25 1 2.234297112846058 1.6943035491732683 39.03330390943018 0 0 0
747 9 1 9.53644101568948 10.917544512813942 46.16513930346171 0 0 0
748 9 1 10.28328897014942 11.746752450033211 47.17046861387753 0 0 0
749 9 1 11.54630934677212 11.107901361369828 47.646259129077215 0 0 0
750 9 1 11.944381218076423 11.747872276094355 48.967855838978686 0 0 0
751 9 1 13.343539951058336 11.158559833083801 49.428233074208926 0 0 0
8300 11 1 1.5939621272218998 25.131529241524895 48.00569432816333 0 0 0
5182 12 1 1.3078555512508292 9.194571173715586 51.60576338312364 0 0 0
1862 10 1 7.323188035801978 19.57289197858861 43.85693000920327 0 0 0
2086 13 1 7.9984001789941415 22.01297205311821 39.88477624575523 0 0 0
7641 58 1 1.1445301032291484 13.83461348827982 41.83011602474986 0 0 0
3899 13 1 16.529825860059002 20.617694134746852 44.002483346031916 0 0 0
8258 53 1 9.40974590215739 22.863593481637665 50.48054211461386 0 0 0
7943 62 1 9.405428424558451 18.25222784491529 51.012504564274025 0 0 0
2761 18 1 15.766891020004326 1.859839041351875 43.485530692972006 0 0 0
8299 11 1 1.3585664798655448 24.18067133962782 46.82335814579183 0 0 0
1650 10 1 17.730203072412948 19.46098662613225 54.5174262574493 0 0 0
1861 10 1 6.094701303931992 20.133585197656238 43.09002817725561 0 0 0
7166 6 1 4.070158644994723 9.425333348611666 45.880900784029905 0 0 0
966 9 1 4.809868489108121 11.341988578936089 41.75985144118633 0 0 0
967 9 1 5.689106848516128 10.641101491275922 42.73042216969066 0 0 0
968 9 1 6.630659016240504 11.504360140507966 43.59521861509775 0 0 0
969 9 1 7.530383653408015 10.782623066563081 44.60265545994429 0 0 0
970 9 1 8.337555139410847 11.659114365429376 45.52966142611132 0 0 0
7072 30 1 1.004661511740484 6.565013004187662 46.82117267115794 1 0 0
6235 48 1 0.9874564305575315 23.01563574533407 51.74672501194423 1 0 0
3447 27 1 12.544306711887115 15.065287067282126 39.4180169062834 0 0 0
7175 6 1 12.141440804414334 8.901866436950796 53.580758583172525 0 0 0
975 6 1 9.067537147907748 13.680593094580306 40.7865431898661 0 0 0
976 6 1 9.898840439070877 12.823817399943493 41.730618269337306 0 0 0
2321 17 1 18.151489699639416 0.29399780596326347 49.802890755477904 0 1 0
6752 62 1 2.379253114493294 1.9271652968167314 48.20482088580285 0 0 0
8002 43 1 3.447071393116392 20.77679415701033 49.61351895100006 1 0 0
981 6 1 14.178617564113027 13.883525980407992 46.28738484133261 0 0 0
6866 53 1 9.4050726408717 4.796598419055241 51.14948076557962 0 0 0
7077 30 1 5.436315478937347 7.112776574979923 51.01520183258564 0 0 0
8455 64 1 4.857190416062253 0.1008970421172424 46.52312131582792 0 1 0
1412 15 1 2.89046559766534 16.36661008243414 39.20076327714001 0 0 0
3377 36 1 18.22895873265904 13.221996791502526 41.0147163896827 0 0 0
3897 13 1 14.789360962361481 20.386047688462487 42.22606448554134 0 0 0
1426 9 1 15.841009539820119 18.526344859922865 48.103995522957526 0 0 0
524 2 1 17.607507139733183 9.583472282006516 50.0656378441914 0 0 0
1195 15 1 8.924591412770651 15.433083575415736 45.36170282875935 0 0 0
1196 15 1 9.745032378569961 16.357749253169327 46.257455150497265 0 0 0
1197 15 1 10.663083188499524 15.533134712739628 47.23532782258786 0 0 0
1198 15 1 11.702450112800701 16.398374205506975 48.087976148925186 0 0 0
1199 15 1 12.70772719368973 15.400959353734445 48.83348087337821 0 0 0
1200 15 1 13.29492228242206 16.034814784168006 50.09873218894901 0 0 0
1201 15 1 14.611949566863991 15.350529379170899 50.539806031045785 0 0 0
1202 15 1 15.126222379632026 15.90828911998029 51.92808632325081 0 0 0
4740 35 1 2.555587369800339 5.293457097386938 53.39658768672986 0 0 0
8220 63 1 2.914701806963845 22.418984258685768 43.25473325328471 1 0 1
2085 5 1 7.097371394433669 22.789648711482428 38.93791488795047 0 0 1
965 9 1 4.008113603189535 10.567121743389873 40.7531015410006 0 0 0
982 6 1 15.295495730457926 13.208104492456512 47.08895931030416 0 0 0
7640 58 1 0.2044550961556115 12.961612953559744 41.01304939822849 0 0 0
8259 53 1 10.268647141085745 22.09912840571255 51.498941611719985 0 0 0
3147 23 1 15.797162112136885 10.912720279229626 42.86874854705483 0 0 0
3898 13 1 15.74281204172454 19.626130975585166 43.188783258070174 0 0 0
3448 27 1 12.940576372965758 15.886861671547692 40.682854367010556 0 0 0
978 6 1 11.246697481462231 12.979654170364332 43.64616417709178 0 0 0
1415 15 1 5.5967859824862805 15.101674654520028 41.84989640211518 0 0 0
1416 15 1 6.232959989678775 16.187496580892223 42.72809210295502 0 0 0
1417 15 1 7.224543319042939 15.543054311665646 43.67882243071817 0 0 0
1418 15 1 8.064611638874696 16.399961178992566 44.652664357337336 0 0 0
1419 9 1 9.707140236160829 17.348405392538712 41.73982977996411 0 0 0
1420 9 1 10.430299588418293 18.28295929607862 42.582660570275294 0 0 0
1421 9 1 11.31748432473894 17.53119827643642 43.56460927834963 0 0 0
1422 9 1 12.316270510379475 18.32519878023754 44.31784756438474 0 0 0
1423 9 1 13.12863981515176 17.545110126399493 45.30339955368356 0 0 0
1424 9 1 14.090971685539465 18.31024077466392 46.223481648415145 0 0 0
1425 9 1 15.126876307392529 17.529469016845233 47.18193315713568 0 0 0
8458 64 1 7.725837165202546 0.7292102042716121 48.92416943593808 0 1 0
741 4 1 11.554499919568363 8.523013151317285 43.679969557711644 0 0 1
963 37 1 2.17352531698688 10.391144624195258 39.05419909349098 0 0 1
8305 11 1 6.07886573568282 24.323056036425157 52.548985449422645 0 0 0
7686 60 1 4.408382774411893 15.058993985846367 50.68243687090103 0 0 0
3069 21 1 17.220167154768575 9.029059521277702 39.65287585461264 0 0 0
8252 53 1 4.342917992367161 22.41844275742537 45.14019600619575 1 0 0
4191 22 1 18.29654897719501 25.137287461278436 45.75789287483816 0 0 0
8390 31 1 0.7205774010469099 0.5564180356416154 41.77716006119732 1 1 1
221 25 1 4.111076323857534 1.866176444755355 40.80280820803379 0 0 0
7681 60 1 0.32023965316603314 15.926408544144522 45.75162374888841 1 0 0
1643 10 1 11.625867445738592 20.64691492844076 48.62924979420606 0 0 0
1644 10 1 12.588228358918798 19.785719784757188 49.360479676200164 0 0 0
1645 10 1 13.473578517436104 20.709983142151934 50.168851326827536 0 0 0
1646 10 1 14.417238873551975 19.923779061978486 51.10466813660666 0 0 0
1647 10 1 15.18707262608891 20.77052304237512 52.00225458533618 0 0 0
1429 9 1 18.537544383184322 17.402724260881858 50.516170289960115 0 0 0
7934 62 1 1.5851480528179396 17.600895221112776 42.74455146925867 1 0 0
7933 62 1 0.906859254355529 18.552396796074206 41.73615370044334 1 0 0
3900 13 1 17.52640282654862 19.93915181759478 44.968052350399766 0 0 0
1858 7 1 4.117033349768523 19.469278804117007 39.682205713139226 0 0 1
7388 56 1 4.408466310651235 11.26396010787676 50.73888114283994 0 0 0
268 1 1 17.908803301190446 5.051920263219017 50.087186076243036 0 0 0
7385 56 1 2.0328477662779547 11.676179123649959 47.72867055286276 1 0 0
2539 18 1 17.62130719124292 1.8220134382609452 45.21643238764911 0 0 0
7386 56 1 2.7581707438168466 10.970891049085044 48.79246145578009 1 0 0
220 25 1 3.319162727811043 2.566422432552056 39.71650548187632 0 0 0
4225 22 1 15.617368573486875 24.219863582133954 43.3223559114465 0 0 0
5627 56 1 3.688688484210583 13.110172998289915 54.47866254829314 1 0 0
3375 36 1 16.48798076575166 13.184177662212969 39.12888183595961 0 0 0
1863 10 1 7.879112607297411 20.45757637385592 45.03015960779477 0 0 0
1864 10 1 8.86016216001284 19.647897024591582 45.85985895482876 0 0 0
1865 10 1 9.709414687475492 20.630529925104227 46.73113747643167 0 0 0
1866 10 1 10.787527323745714 19.88130891723781 47.545453474000446 0 0 0
1867 13 1 12.267425128460589 23.111356738333356 44.58781578433345 0 0 0
1868 13 1 13.127918369229663 22.302723569701136 45.64729158533902 0 0 0
1869 13 1 14.00581742136864 23.296298315650727 46.37293441146004 0 0 0
1870 13 1 14.909717922334353 22.31074632942571 47.04035641057324 0 0 0
1871 13 1 15.988084788535927 23.00906976561218 47.85338813269857 0 0 0
1204 15 1 16.822798506166226 15.567635769858036 53.760570987814226 0 0 0
7648 58 1 6.761915314634928 13.623883569641045 48.3526517029419 0 0 0
740 4 1 10.311161044987463 9.264189692140727 43.286914033451 0 0 1
6753 62 1 3.2807732275813484 2.8634957633800435 49.06357472484298 0 0 0
6756 62 1 6.118936175008697 2.2941200822617884 51.8431701326475 0 0 0
2534 17 1 8.442141085859225 26.268681314479494 39.96299857705838 0 0 0
8462 64 1 10.930109392613627 0.6408737127988438 52.627850473761335 0 1 0
8460 64 1 9.270067853809966 0.5129459722378142 50.69746884564973 0 1 0
974 6 1 7.894600317312544 12.92801325196531 40.16316490171023 0 0 0
7683 60 1 1.6036451232080824 15.99083440215622 47.95480313398346 1 0 0
2088 13 1 9.61440200393982 21.83101576774719 41.94604704265334 0 0 0
2089 13 1 10.528648617027775 22.73763971771259 42.66331428763225 0 0 0
2090 13 1 11.242680560899846 22.144383916417855 43.852978161214125 0 0 0
2091 17 1 9.582573586448955 25.30757503081176 46.904495590281 0 0 0
2092 17 1 10.638246975612395 24.620282102740397 47.789503999957404 0 0 0
2093 17 1 11.659146196905002 25.54182091070857 48.49479400864058 0 0 0
2094 17 1 12.506744271678365 24.57150661357008 49.26053465282227 0 0 0
2095 17 1 13.452435148537955 25.137076080193513 50.245031478256855 0 0 0
2096 17 1 14.548959179072954 24.282705141681266 50.800010457268485 0 0 0
2097 17 1 15.144696326256252 24.834029115900442 52.055859446245535 0 0 0
6237 48 1 2.459986531988119 23.282236591143008 53.71148922771963 1 0 0
7947 62 1 13.269449071122015 18.490142550766766 54.21573806023787 0 0 0
7383 56 1 0.34383779033168027 11.636502180459583 46.00708619639564 1 0 0
8218 63 1 0.8346710878323196 22.80290175778129 41.80836447517487 1 0 1
8262 53 1 13.10623045161672 22.941892071819392 53.97444766550747 0 0 0
2756 20 1 11.607090983310592 2.745522272047542 38.82814536494255 0 0 1
8006 43 1 6.7581041411139 20.686971054566126 53.256533079897565 0 0 0
8451 64 1 1.4983477342067548 26.525638445394716 42.970601288331714 1 0 0
2317 17 1 14.261694454684198 0.677570531286909 46.407707392996095 0 1 0
2757 20 1 12.510257124304614 2.1286513676037866 39.921147523133186 0 0 1
7936 62 1 3.42414929916012 17.424905016068248 44.66873831831312 0 0 0
7176 6 1 13.18252922719676 9.603193844393484 54.29973188837383 0 0 0
5626 56 1 2.866684992458226 13.926343502651209 53.63439207891225 1 0 0
8261 53 1 12.224381307616653 22.044544729513376 53.158540550741066 0 0 0
2313 17 1 7.683284124646615 25.248590423032386 45.22545641351857 0 0 0
2314 17 1 8.539969007493665 24.414342731334155 46.246694713727784 0 0 0
2315 17 1 12.316508070551338 0.6199736504388164 44.97796043017116 0 1 0
2316 17 1 13.397352083790667 26.426351352579765 45.59024518982764 0 0 0
753 9 1 14.893609021559891 10.998696134505122 51.539299043852736 0 0 0
3376 36 1 17.34131061797882 14.00741182643574 40.005359966889024 0 0 0
3889 29 1 17.102389804298035 18.36368381950955 40.17185034790132 0 0 1
7688 60 1 6.241442270729848 15.48068045475466 52.4632002201789 0 0 0
7935 62 1 2.727327965244235 18.25323682112426 43.569071093121806 1 0 0
7162 6 1 0.3628145426963556 9.461534228427562 42.41288700269475 0 0 0
7941 62 1 7.785947710269642 18.322180353289344 49.171458229169396 0 0 0
7173 6 1 10.791797055978837 8.815327054853956 51.300820675991645 0 0 0
7645 58 1 4.640905575151165 14.030950320670943 45.35124844674474 0 0 0
3454 27 1 18.346227155632995 16.16975312054314 45.819506711506854 0 0 0
8459 64 1 8.225619694359066 26.43920006183554 49.92234834981659 0 0 0
7940 62 1 6.575598802735478 17.541817556755614 48.685626927691146 0 0 0
2535 17 1 9.33780246389328 0.3620551940699623 40.927093408067016 0 1 0
2536 17 1 9.89862702874292 26.20376472480673 42.133853711615444 0 0 0
2537 17 1 10.751628457460027 0.45808838600644136 42.92922316431436 0 1 0
2538 17 1 11.454065187813754 26.411986352759108 44.06995530809138 0 0 0
4273 33 1 16.457453021221284 26.287700936598007 39.4329191738105 0 0 0
5624 56 1 1.2746362742030404 13.722819871230833 51.745257856190875 1 0 0
3367 16 1 12.008526945816467 10.487831643369587 39.74814789839293 0 0 1
984 6 1 16.837773548680634 13.153958701111137 49.048380282593506 0 0 0
7644 58 1 3.5474941318536244 13.249418162766514 44.71701909586269 0 0 0
1427 9 1 16.65004557230617 17.624214475477658 49.01355100913614 0 0 0
7391 56 1 7.5039162443456116 12.046603816188684 52.82228757177847 0 0 0
1413 15 1 3.704774329122273 15.254211045306931 39.939504697920825 0 0 0
2759 20 1 14.149464448340382 2.2334771853007824 41.714018274340226 0 0 1
2758 20 1 12.907858180367086 2.895879693593176 41.06269903098168 0 0 1
7937 62 1 4.095681198785746 18.308964700009376 45.68268938452588 0 0 0
2087 13 1 8.924360795707733 22.705081024228797 40.93328634323556 0 0 0
3056 20 1 11.352293897119557 7.258210035701488 38.84039583289977 0 0 1
8257 53 1 7.926261185900097 22.352519610718947 50.27045038423794 0 0 0
7076 30 1 4.269974164058029 6.240238171643969 50.60130654453473 0 0 0
265 1 1 15.33997330845089 3.9723109391181275 47.511492001186745 0 0 0
746 2 1 16.16068009025431 9.443310723980167 48.14461164869597 0 0 0
6867 53 1 10.47779589024129 3.9533046621685743 51.73135517242498 0 0 0
5184 12 1 3.22406689877276 9.362806321852297 53.28016714041579 0 0 0
7647 58 1 6.2149170449692726 14.149702526313916 47.15319695048078 0 0 0
2533 16 1 7.484394686195843 0.5210492347330236 39.21308444657952 0 1 1
3369 23 1 13.918392137857353 10.639195232796688 41.36903643719786 0 0 0
8452 64 1 2.7787623774392802 0.43444790806441824 43.29886115630521 1 1 0
7689 60 1 7.069824784261792 16.380270786236505 53.29916321533236 0 0 0
8000 43 1 1.784496382922205 20.72091485203886 47.734171070873145 1 0 0
7165 6 1 3.3155059742721105 8.650144669180404 44.7559492432017 0 0 0
8004 43 1 5.193966616276312 20.629708535259866 51.375830590677076 1 0 0
2312 17 1 7.229473409053787 24.388267697330843 44.04672303822043 0 0 0
1872 13 1 16.7521509536982 21.909450674394275 48.550367535333 0 0 0
3148 23 1 16.78782512721093 11.684422651103674 43.69447684312686 0 0 0
3149 23 1 17.390183899532108 10.828505915793398 44.790066091459266 0 0 0
7078 30 1 6.250233864613621 6.64294183486769 52.17117018704613 0 0 0
7164 6 1 2.378677179068999 9.45801352945066 43.884533194208394 0 0 0
8219 63 1 1.5396406836786376 21.975676136729433 42.79024614415209 1 0 1
305 2 1 16.061271037348664 6.235544205395507 53.44624801182348 0 0 0
7168 6 1 5.595040701257493 9.275977415497355 47.81489250982931 0 0 0
6532 39 1 1.8698373422837766 0.271724729578335 52.72545986972068 1 1 0
11 25 1 16.900601454237908 1.9048492830408488 52.875971920525146 0 0 0
2760 18 1 14.84679018091357 2.9547407113689563 42.85655109412253 0 0 0
754 9 1 15.999387919928912 11.572480793535732 52.42021347655643 0 0 0
7650 58 1 8.784930889935385 13.410871678058808 49.7436963140448 0 0 0
5934 44 1 1.0388940594823435 18.482959457526796 51.78930759879338 1 0 0
735 4 1 5.888249898365867 8.282029059851114 38.918673103455674 0 0 1
2309 17 1 4.963749105447912 25.40068619932215 41.13994104092393 0 0 0
8463 64 1 11.969106724682632 26.534140895100354 53.43216355547876 0 0 0
2098 17 1 16.476984085491022 24.2220420785959 52.68244431635506 0 0 0
3449 27 1 13.950285369641893 15.298905104898608 41.60795225875639 0 0 0
1859 7 1 4.584991282090399 19.97379269090479 41.05388809365134 0 0 1
7167 6 1 5.411680231324657 8.854484633695973 46.2933882704023 0 0 0
985 6 1 18.011721057144914 13.817163519522715 49.608969621889145 0 0 0
7074 30 1 2.723763277042864 6.314895905378872 48.66433784300112 1 0 0
7939 62 1 6.075197438638449 18.343023307405282 47.50589818103627 0 0 0
736 4 1 7.187199024579395 8.858610951879003 39.19698479205037 0 0 1
7653 58 1 11.633049705541513 14.279084533703152 52.51296826381443 0 0 0
3452 27 1 16.498907754739168 16.255233639969852 44.20695755282013 0 0 0
979 6 1 12.177446000120046 13.666381040092325 44.64491640509325 0 0 0
986 6 1 18.664652777933654 13.11888780923007 50.76836798816393 0 0 0
3976 30 1 17.722417484274715 22.645892134716586 40.12404092959139 0 0 0
7075 30 1 3.375004728607924 7.121671342793115 49.80270928231716 0 0 0
1203 15 1 16.27791064040767 15.008129652548318 52.374228107668756 0 0 0
8007 43 1 7.8529935133700475 19.89216528490837 53.89831816651884 0 0 0
304 2 1 15.25214203488613 7.167488373385471 52.523920007747364 0 0 0
3070 21 1 17.933653287978856 8.32780042892976 40.70119597006972 0 0 0
7174 6 1 11.5666513661929 9.617722078913767 52.33152337132937 0 0 0
4227 22 1 17.712996471913808 24.15607337284529 44.855193492272875 0 0 0
7649 58 1 8.193976609477826 14.162915848037144 48.54179934171975 0 0 0
294 1 1 8.330197328023715 4.176886773316696 40.37253163378452 0 0 0
7169 6 1 7.088250490234229 9.030753728521825 48.0126753737817 0 0 0
8302 11 1 3.4250828528603017 25.492961556846982 49.957221841112606 0 0 0
755 9 1 16.558831612204084 10.632519945527159 53.44094761756665 0 0 0
7392 56 1 8.246588730054956 11.190350820168629 53.865624029152414 0 0 0
7684 60 1 2.684602766286709 15.164376180472397 48.64240333653293 1 0 0
7944 62 1 10.391752826389663 17.5217266849801 51.82053377743437 0 0 0
977 6 1 10.932626995939453 13.723704552760003 42.33941427015275 0 0 0
2308 17 1 4.087326572368789 24.530093758431203 40.23450055535313 0 0 0
1428 9 1 17.730100842467042 18.43670220255565 49.6895959338643 0 0 0
3453 27 1 17.380735821650184 15.427308486687041 45.12561185321774 0 0 0
7079 30 1 7.5267683479661045 7.329123739191102 52.688747771852135 0 0 0
4226 22 1 16.599261049792002 24.99264316590573 44.24048058232878 0 0 0
2763 10 1 17.19559710512397 4.4620434488116585 40.4534762008019 0 0 0
6865 53 1 8.707792424776036 4.041554687552582 49.9851802050741 0 0 0
8254 53 1 5.666787772680182 22.671359261152674 47.11622181138024 1 0 0
513 59 1 2.7301214126549453 6.413257148652134 38.703840585691694 0 0 1
6533 39 1 2.7538827162715673 1.2130763836959777 53.42174127720742 1 1 0
742 2 1 12.476827504375349 9.275588088796322 44.54183805951411 0 0 0
1641 9 1 8.114609924309695 17.19927914909783 39.76825763706075 0 0 0
1649 10 1 16.710125064328462 20.46374928490812 54.03215912571453 0 0 0
7651 58 1 9.704563340404986 14.246281619023435 50.52729429609307 0 0 0
303 2 1 14.436202842410571 6.277330057285619 51.486702969316596 0 0 0
1648 10 1 16.433617800836192 20.121457130884952 52.54744317437777 0 0 0
6869 53 1 12.324823725177755 4.295014803679646 53.40682554458719 0 0 0
8001 43 1 2.615885470478747 19.940741772913896 48.73849697284764 1 0 0
3023 19 1 17.72519801763805 6.225628382946377 45.25159648454026 0 0 0
3975 30 1 16.364788888725933 22.344627285168013 39.5336621711493 0 0 0
1414 15 1 4.361748667503247 15.785512342278988 41.20162213234316 0 0 0
7687 60 1 5.082823741193297 15.99737337737368 51.68760763440213 0 0 0
3059 20 1 14.279661372531415 6.243867661022266 41.24865930890841 0 0 1
964 9 1 3.0697511622347995 11.292850465893718 39.88270800901593 0 0 0
6870 53 1 12.982221216372787 5.161701053768472 54.45019828903057 0 0 0
5936 44 1 2.7931889537473484 18.95649188195958 53.684768149137426 1 0 0
6856 53 1 0.3272060750917606 4.734842765821065 42.4034768481708 0 0 0
8306 11 1 7.081505504746854 25.190782669190458 53.35234637102057 0 0 0
8253 53 1 4.670192582028633 21.861117319763736 46.52708056258806 1 0 0
4262 26 1 13.100904908492437 24.951377249167653 40.57163454251234 0 0 1
4739 35 1 1.7389972935299123 4.510650735147305 52.36245805951026 0 0 0
514 59 1 2.875726001215549 7.0988532777549676 40.09659543780759 0 0 1
8301 11 1 2.784188520216246 24.70897425574304 48.85173581978306 0 0 0
8251 53 1 3.0805012784944457 21.781060205364657 44.594479875908185 1 0 0
7685 60 1 3.4913408372081096 15.930101636504183 49.78436486237622 1 0 0
6857 53 1 1.5556852372564092 4.055584936232001 42.83008936921668 0 0 0
7384 56 1 0.6612321881374542 11.191895033891734 47.337123176741585 1 0 0
7942 62 1 8.43624586500509 17.49514898906537 50.26138525758798 0 0 0
8307 11 1 8.016472834136954 24.29380026914563 54.06070169362588 0 0 0
3021 19 1 15.909492349002964 6.177386751602861 43.26335007810348 0 0 0
8304 11 1 5.031691749577336 25.25070673123135 51.81151119270418 0 0 0
7646 58 1 5.273344855989592 13.213558726094378 46.42592445093818 0 0 0
6868 53 1 11.042144216904102 4.845233919469834 52.81010565154921 0 0 0
3890 29 1 18.358734112739484 17.777014577505977 40.89585249547715 0 0 1
6754 62 1 4.098058463649351 2.164147907535998 50.21425732966299 0 0 0
6755 62 1 4.921358046860311 3.0856898995389073 51.266521938140656 0 0 0
7171 6 1 9.111366449588894 9.404231983661212 49.382812104229295 0 0 0
306 2 1 17.175741262947746 7.066197220294312 54.001468701504066 0 0 0
752 9 1 13.98276147409752 11.819894138211444 50.713412429953216 0 0 0
7390 56 1 6.218112791426647 11.439564550351735 52.48259463061373 0 0 0
6759 62 1 8.931939187053267 2.9533391865079346 54.518506303283445 0 0 0
3370 23 1 14.742428883496613 11.622090571277253 42.05708781143953 0 0 0
2310 17 1 5.756874421374987 24.50904231997419 42.127833825549665 0 0 0
8454 64 1 4.545509978983666 0.6865359453093809 45.225044666442315 1 1 0
266 1 1 16.365979278795752 4.847703103502951 48.087813947162 0 0 0
1857 7 1 2.91923918797756 20.300527643653503 39.228696818472685 0 0 1
7080 30 1 8.131085732153522 6.553072929796471 53.818677570245356 0 0 0
6750 62 1 0.4708597813782932 1.9751698368192152 46.444880057273274 0 0 0
7652 58 1 10.712051708303196 13.561067193747121 51.53422813271975 0 0 0
6858 53 1 2.0498950890632663 4.727718578087122 44.01269876634486 0 0 0
6859 53 1 3.4780477728453913 4.1664646322200936 44.48730750714831 0 0 0
6860 53 1 3.90181519333673 5.002886103125329 45.71596712861406 0 0 0
6861 53 1 5.273071831194643 4.522162965473735 46.179171484863396 0 0 0
6862 53 1 5.8816848668959025 5.243078280883037 47.32913445463149 0 0 0
6863 53 1 6.874950229354326 4.417894934502049 48.166346840249105 0 0 0
6864 53 1 7.516130892234935 4.907204092330667 49.42852686593503 0 0 0
7654 58 1 12.465814520765502 13.17302136770404 53.2977695130448 0 0 0
7389 56 1 5.649678633405429 12.026626401062295 51.22825056911734 0 0 0
7946 62 1 12.432035196642216 17.598796207713225 53.33245106384902 0 0 0
7387 56 1 3.9642377360016137 11.830485336804811 49.38145464775977 1 0 0
8461 64 1 9.975108326189503 26.435522255899144 51.77612350707332 0 0 0
8303 11 1 4.4562336989012055 24.563676105203875 50.581785552965094 0 0 0
3368 23 1 13.154653074206859 11.343143267485885 40.29578288081634 0 0 0
12 25 1 17.61737325643248 2.7754736419051094 53.98571330910782 0 0 0
7170 6 1 7.559308140942265 9.468122808863896 49.343181083160744 0 0 0
8457 64 1 6.433406210413326 0.14307464264524947 48.49126738699218 0 1 0
3901 13 1 18.274654989851037 20.905267258551106 45.833760119252204 0 0 0
6757 62 1 6.9465936872826415 3.032766547182133 52.86202646647758 0 0 0
5625 56 1 2.232972087981937 12.961772032034906 52.604908736952275 1 0 0
7172 6 1 9.524634273661382 9.566481571273004 50.82686831357668 0 0 0
3894 13 1 11.851951098776919 19.569803668415773 39.856473554289146 0 0 0
973 6 1 7.252247367016115 13.650333431785723 38.96251595742988 0 0 0
8260 53 1 11.379050875105504 22.817659991794102 52.20436794484435 0 0 0
3058 20 1 13.498534472259577 7.241738100785858 40.394039286407654 0 0 1
7073 30 1 1.6553072846823782 7.279592860876126 47.99061402761514 1 0 0
8005 43 1 6.1490551196693275 19.798539678574443 52.18882234742213 0 0 0
2762 18 1 17.091070065658755 2.5119417150252032 43.92104563060267 0 0 0
6758 62 1 7.642804594865067 2.2216905454935416 53.94738749577267 0 0 0
7682 60 1 1.0982417615254536 15.160973993802937 46.80232710851671 1 0 0
983 6 1 16.181328895614488 14.027440854858014 47.90706423159672 0 0 0
3366 16 1 11.186250302663911 11.475948981913081 38.95604113316836 0 0 1
7690 60 1 8.253829156274016 15.58014317460055 53.80460993668642 0 0 0
7999 43 1 0.865228407267939 19.770501758473 46.96003859708393 1 0 0
2986 10 1 16.655877417039704 4.229635202926141 39.01792888473839 0 0 0
2987 19 1 18.280613371205114 7.212466201943896 46.21153628261128 0 0 0