LAMMPS data file via write_data, version 23 Jun 2022, timestep = 11112117

8487 atoms
2 atom types
8471 bonds
3 bond types
8455 angles
3 angle types
8439 dihedrals
3 dihedral types

0 36.89775039 xlo xhi
0 26.67072 ylo yhi
38.62251775507778 198.12908664490345 zlo zhi
0 5.018423965283938 0 xy xz yz

Masses

1 14
2 15

Pair Coeffs # lj/cut/omp

1 0.0914 3.95
2 0.1947 3.75

Bond Coeffs # harmonic/omp

1 449.5 1.53
2 449.5 1.53
3 449.5 1.53

Angle Coeffs # harmonic/omp

1 62.0967 114
2 62.0967 114
3 62.0967 114

Dihedral Coeffs # opls/omp

1 1.411 -0.271 3.145 0
2 1.411 -0.271 3.145 0
3 1.411 -0.271 3.145 0

Atoms # molecular

4117 32 1 15.942102266126218 20.13855174696847 41.94502117570791 0 0 0
1276 14 1 5.047948522820727 14.175878455803652 40.50487530857575 0 0 0
222 58 1 4.458805487427747 2.049914176280691 39.60038165789672 0 0 0
4 58 1 9.860166935501239 1.9800634152673935 44.7635098645317 0 0 0
5 58 1 10.572355971491197 1.0247853462358592 45.72101315981401 0 0 0
6 58 1 11.55841716492193 1.747588744626254 46.56516943823117 0 0 0
7 58 1 12.393227733793928 1.2179493644044586 47.73343092861364 0 0 0
8 58 1 13.162942101142626 2.306355259073293 48.6347973097357 0 0 0
9 58 1 14.472848548358131 1.705507437063186 49.27192164102991 0 0 0
10 58 1 15.02759781425873 2.613936463361051 50.40853444062654 0 0 0
8281 55 1 2.6353918682277815 25.809213013520317 42.520987322173404 0 0 0
6729 9 1 6.835958899042369 8.919447092493535 46.950358795016456 0 0 0
3219 45 1 13.427223337446138 10.190701949296606 39.525904539399015 0 0 1
6458 1 1 5.27954677849257 4.379954940827871 45.22397291841268 0 0 0
4433 28 1 13.429057011620555 23.15254570643935 39.44132516970001 0 0 0
4116 32 1 15.272884810883816 19.365228966773167 40.79820645855397 0 0 0
667 37 1 5.254126654900894 5.454703683030178 40.09056980428163 0 0 0
717 5 1 17.953296155390227 8.598155608612364 48.74521300331575 0 0 0
3000 24 1 17.862529308302758 10.844183576190439 43.774817295845885 0 0 0
1765 15 1 9.321352860751825 20.536347867428937 39.72228014180461 0 0 1
1802 16 1 13.63759439519962 21.931153147014538 44.41881403085984 0 0 0
1835 17 1 5.856292768790806 23.252924338921773 40.563051656738885 0 0 0
8052 63 1 5.793484491571936 23.445649114775005 50.31545958805726 1 0 0
3220 24 1 14.269981650728427 10.9430581876679 40.54844085102598 0 0 0
1274 52 1 3.3798746147085845 14.37351223551695 38.62291649918582 0 0 1
1764 15 1 8.351933223952827 21.47577320155947 39.075739776208586 0 0 1
228 36 1 12.87227529822086 3.1242926115956946 43.277410560784205 0 0 0
229 36 1 13.621536375701726 3.94170552901866 44.2737374471082 0 0 0
230 36 1 14.717281603659684 3.1603947000846175 45.13299912513966 0 0 0
1052 8 1 9.261837130350067 12.334829266737163 40.0804409722092 0 0 1
6349 54 1 0.21451288237995625 1.5233898750436041 44.86873588847085 1 0 0
2099 19 1 11.006574926895247 25.53703674066525 41.56344202018913 0 0 0
4438 37 1 17.758839354272272 25.398533916232076 39.29622976618715 0 0 0
12 58 1 17.07042859838208 2.7457159579281405 51.84326924253537 0 0 0
6455 1 1 2.713332168236786 3.7248999574526045 42.56324122067965 1 0 0
7287 16 1 1.0962785088209208 15.611303695010488 45.50259496117438 0 0 0
715 5 1 16.23845486619613 8.343590873289541 47.0467883962639 0 0 0
7556 10 1 3.136826568195497 16.875828612761946 42.44209297442896 1 0 0
6736 9 1 13.237971136399898 8.491154824029683 52.71409772905587 0 0 0
1801 16 1 12.676806951099955 21.111060598061034 43.55763465441057 0 0 0
1288 12 1 17.09367201349256 18.0189534104127 47.96919497580284 0 0 0
449 37 1 10.623618225262348 5.539418669788261 45.38557151952208 0 0 0
450 37 1 11.344452824943929 6.518890400445085 46.39689439727216 0 0 0
451 37 1 12.604973237698314 5.881338470660486 46.995804278133555 0 0 0
452 37 1 13.192899681958359 6.73182169074887 48.25463722021391 0 0 0
453 37 1 14.394819396228005 6.220825250216198 48.983381065784535 0 0 0
454 37 1 14.88660535641748 7.058336138859364 50.053746597449496 0 0 0
455 37 1 15.9859344030664 6.4142576307951105 50.87523407976741 0 0 0
456 37 1 16.466352067365857 7.365635344729289 51.987029474970804 0 0 0
457 37 1 17.683223402118777 6.625046915374545 52.47416526964991 0 0 0
2555 25 1 13.434545734020539 5.354892803555914 39.0570445396749 0 0 0
8280 55 1 1.6504821202362714 26.604805159437994 41.61328836542147 0 0 0
7557 10 1 3.723948843572844 17.81714714772729 43.513589956569824 1 0 0
5374 41 1 3.5695317946121237 13.900161908265682 52.882940412766615 1 0 0
6732 9 1 9.57016479376142 8.036105516932855 49.39884044031437 0 0 0
7066 58 1 9.928715547715584 12.554198645088686 49.53172917649356 0 0 0
7843 62 1 7.926270117326181 21.52495057483506 48.01003948637315 0 0 0
6724 9 1 2.758664151572858 7.930132373284622 42.195590768954034 1 0 0
226 36 1 11.040967641983663 3.244532819220402 41.38290473885126 0 0 0
6457 1 1 4.7698238998311835 3.632751335868921 43.99140684786846 0 0 0
669 37 1 6.872485201729211 5.30895251902859 42.05519053616934 0 0 0
670 37 1 7.593868602965019 6.202053329718396 42.944814972537294 0 0 0
671 37 1 8.629896553999084 5.385364335540898 43.70179580487893 0 0 0
672 37 1 9.501653012644697 6.2210077282356115 44.58422150357687 0 0 0
710 5 1 12.028478114226358 8.41742720006015 42.231844224135074 0 0 0
711 5 1 12.862985808054177 7.814883799605687 43.41211172924455 0 0 0
712 5 1 13.985712449057104 8.780129687624889 43.88394878162221 0 0 0
713 5 1 14.504214893362885 8.186010475834456 45.18237964653797 0 0 0
2559 25 1 16.88761090826256 5.447488645782984 42.09146178044618 0 0 0
2561 25 1 17.353162139119036 6.149765114282209 44.58412079814292 0 0 0
224 58 1 6.0983563470667645 1.9383782686426405 41.54124117282915 0 0 0
6496 54 1 3.581878072052488 6.09652299715803 48.2362108859173 1 0 0
233 36 1 17.28954343733608 4.3907738276349475 47.699677563155625 0 0 0
227 36 1 11.863873591895631 3.911356133587161 42.45883430607679 0 0 0
7842 62 1 7.1022650634799085 22.31677241946262 46.945737764293284 0 0 0
2106 34 1 16.19103011647156 1.8031700958896026 41.979492097836115 0 0 0
4114 31 1 13.267388004429982 18.845963234242248 39.25965774449944 0 0 1
6493 53 1 0.9964688004771033 6.612235074347298 45.229795690199225 1 0 1
7834 62 1 0.20554253236385217 22.332910374717493 39.91783565998338 0 0 0
1878 43 1 4.8338141302256075 24.11330949718174 39.86323470362914 0 0 1
4766 41 1 1.3286353615741442 3.768443176339344 50.439120710998004 1 0 0
760 5 1 10.978095776258982 7.4652016274156185 41.80719263023026 0 0 0
761 6 1 11.38066502339341 10.843761470942855 46.207085194897026 0 0 0
762 6 1 12.126255212648145 10.057644997931044 47.36637215944625 0 0 0
763 6 1 13.410844774404838 10.848901495722158 48.05553724295058 0 0 0
764 6 1 13.88403764116526 10.078438576840167 49.186731798184944 0 0 0
765 6 1 14.828029814917585 11.004060996362501 49.95599269152617 0 0 0
766 6 1 15.63142513541659 10.470386871985863 51.110432868705956 0 0 0
767 6 1 16.603321346569004 11.401490672441081 51.76469263770045 0 0 0
3668 27 1 12.41225793386672 15.47407283782865 38.75900095723365 0 0 0
1767 15 1 11.156085586761172 20.850086098828456 41.65205356389287 0 0 1
1881 19 1 16.474193137511012 25.667013205780883 46.883148489690214 0 0 0
6468 1 1 14.561627253676608 4.978170191956459 53.75521432988868 0 0 0
231 36 1 15.328431136601324 4.024658334122682 46.24224760526431 0 0 0
5983 48 1 1.9850185293045874 22.386676468756498 51.38953353071467 1 0 0
6351 54 1 2.1771680676455873 1.5902834891294602 46.55239614879852 1 0 0
447 36 1 8.336934422235572 4.059197083824342 38.8491486472567 0 0 0
7601 21 1 5.3139642675504515 19.192730737516296 50.58345815671713 1 0 0
4212 28 1 16.08319829947162 24.281756642308846 41.943136756921966 0 0 0
792 6 1 5.4534039073112295 10.6339476488561 41.27148550223052 0 0 0
793 6 1 6.789025385579987 10.070275046872352 41.94909738643155 0 0 0
794 6 1 7.314988999374161 10.775497644032782 43.14851126288916 0 0 0
795 6 1 8.626754214631273 10.094127057278804 43.59561793854085 0 0 0
796 6 1 9.409898081570196 10.814247670634979 44.71575602242521 0 0 0
797 6 1 10.597910867165515 10.021818446745423 45.23463710223572 0 0 0
835 9 1 15.63751273456764 13.2294318792082 45.97550338998071 0 0 0
836 9 1 16.647094556684756 12.531018646017696 46.8413076801391 0 0 0
837 9 1 17.30115317524645 13.339871621015462 47.910972926211805 0 0 0
3443 11 1 17.584626647205877 12.242687268447542 39.0672931719482 0 0 1
7058 58 1 2.9049043159370647 12.182156114276912 42.72923679911874 0 0 0
6136 39 1 4.072298319448136 26.434396779534833 53.02190438792996 1 0 0
6359 54 1 9.103345447369962 1.8487332525195754 53.547958516867986 0 0 0
7293 16 1 6.426797427256961 15.962995838817468 50.61471742174437 0 0 0
3670 27 1 14.35678687650905 15.399743770083422 40.36505697912681 0 0 0
7063 58 1 7.035082878721398 13.299017993844435 47.10016231799382 0 0 0
6350 54 1 1.2917652984230168 2.2966505991385464 45.54570019343355 1 0 0
1883 19 1 18.53446312188573 26.088933737533633 48.63699037975897 0 0 0
1054 9 1 11.157028707712929 12.250125238309275 41.769001439130086 0 0 0
1287 12 1 16.45093902685325 17.35439652435871 46.80824738564619 0 0 0
6495 54 1 2.655990055489549 6.807471870629719 47.23341085340345 1 0 0
1056 9 1 12.835248577393886 12.39398843905217 43.60564957355912 0 0 0
1057 9 1 13.941957614116452 13.321543596125592 44.179135664975796 0 0 0
1058 9 1 14.793047999896766 12.441303190434864 44.93512205493986 0 0 0
1059 14 1 11.726824481146197 15.243996462983588 46.55952663609862 0 0 0
1060 14 1 12.741782235950195 14.414553876919067 47.33731116074581 0 0 0
1061 14 1 13.704115889528946 15.378173919921704 48.160440628690395 0 0 0
1062 14 1 14.050573469028851 14.68034101644204 49.5534802543969 0 0 0
1063 14 1 15.11481696668576 15.62481886356549 50.166419209327266 0 0 0
1064 14 1 15.976862797769519 14.829984159875158 51.092039931793735 0 0 0
1065 14 1 16.90213882508949 15.749809643607854 51.748365002183114 0 0 0
7295 16 1 8.145864715361476 15.743637908307077 52.643829384832 0 0 0
5209 60 1 1.556812923711381 8.372920115074303 50.36421196941143 1 0 0
6731 9 1 8.934244907862093 8.840208596870678 48.366460224105325 0 0 0
7294 16 1 7.392605461945455 15.115524175867641 51.47252857617738 0 0 0
8054 63 1 7.518418297816531 23.61934311323088 52.02252326706233 1 0 0
7568 10 1 13.692495891968019 17.190338107312353 53.08761470394081 0 0 0
8286 55 1 7.3211785714681135 0.2330035033761798 46.927806419121694 0 1 0
8289 55 1 9.90398264996725 26.277864758772058 49.375832599559516 0 0 0
1836 17 1 6.55453715895039 24.1769338300844 41.474199509240115 0 0 0
8046 63 1 0.42205934648933097 23.747884474337393 44.7908175919156 1 0 0
6356 54 1 6.276986876220314 2.2053188256360943 50.852176170278355 0 0 0
1278 14 1 6.673200100684397 14.280548745970234 42.52398123676677 0 0 0
1279 14 1 7.835258078307828 15.054083998593516 43.02491132014563 0 0 0
1280 14 1 8.623885397510964 14.443646198119684 44.20984696859559 0 0 0
1281 14 1 9.974478760582706 15.091271121369887 44.5851626715315 0 0 0
1282 14 1 10.491528576959624 14.596525744531316 45.98809423455103 0 0 0
1283 12 1 13.032781332452721 16.944666024336577 43.316631585765094 0 0 0
1284 12 1 13.84872423937688 17.860276477146574 44.17556225011686 0 0 0
1285 12 1 14.895464298110568 17.020090739345445 44.77322444930535 0 0 0
1286 12 1 15.569838857877007 18.089981312749217 45.74832587456094 0 0 0
1067 14 1 18.428568026672743 15.909705901517931 53.66011397719808 0 0 0
1512 14 1 15.913262299275148 19.337560697614283 50.77692667324202 0 0 0
1051 8 1 8.65616810630441 13.045647074804144 38.896050898595874 0 0 1
6456 1 1 3.6712190710727572 4.506155893774152 43.45247116324511 1 0 0
6728 9 1 6.126979932612086 8.001905944726065 45.920946544725844 0 0 0
4214 28 1 17.56790669616026 24.188684624556732 44.06603886879933 0 0 0
6727 9 1 5.019588079372002 8.770120532703736 45.21747433478357 0 0 0
7569 10 1 14.253897324838059 18.067542552778278 54.06878978494342 0 0 0
1722 13 1 3.8096202477139474 18.99799116306431 38.67287557892026 0 0 1
448 36 1 9.204373559360343 3.2237213163677847 39.78854439260991 0 0 0
1289 12 1 18.304488368484428 17.21258141909408 48.559826874714524 0 0 0
5211 60 1 3.4263601702152746 8.783702336575368 51.7290261881179 1 0 0
7059 58 1 3.4707478726124603 13.179619710378905 43.773332802923356 0 0 0
1505 12 1 11.268026174992814 16.81686860434396 41.52013259796544 0 0 0
1507 14 1 11.400128687706886 20.270308682630823 46.94542263934616 0 0 0
1508 14 1 12.427384716313167 19.347316093443993 47.55012808685894 0 0 0
1509 14 1 12.908313708764522 20.099875324848224 48.82007522710487 0 0 0
1510 14 1 14.251744071336718 19.59064051974893 49.167806907606675 0 0 0
7500 57 1 1.1823627717083156 16.637095635191837 41.07362436346231 1 0 1
2546 22 1 17.46111437874716 3.325007035836785 38.97741114541331 0 0 1
8293 55 1 13.684004581014296 26.300066801711946 52.986687945979014 0 0 0
7071 58 1 14.18367477154664 13.570844619038617 54.12699628778576 0 0 0
7840 62 1 5.8234359608853445 22.165414160761586 44.78805938358537 0 0 0
838 9 1 18.235060456533695 12.606348462252157 48.859732682080704 0 0 0
1277 14 1 6.220190144219514 14.785254278867413 41.18108462672689 0 0 0
1766 15 1 10.264950127682736 21.410345667629535 40.54905568559135 0 0 1
7567 10 1 12.489803929465307 17.73722734996663 52.38091008714685 0 0 0
7555 10 1 2.158509242380341 17.660428067375463 41.57958800678246 1 0 0
232 36 1 16.56441635727159 3.3837258767820986 46.76284078077313 0 0 0
7598 21 1 3.0628339588706153 20.09384728921584 47.37533314615768 1 0 0
1724 14 1 5.526708134296425 18.878677767452263 40.33780472396315 0 0 0
1725 14 1 6.454347989757511 19.618227179507944 41.241315465761 0 0 0
1726 14 1 7.246490948315499 18.802777103194803 42.31659334298258 0 0 0
1727 14 1 8.006937360640814 19.852617455055015 43.28896365661756 0 0 0
1728 14 1 9.090968491382158 19.176808958515537 44.13266480833099 0 0 0
1729 14 1 9.5436257573311 20.16652665060206 45.22640774821252 0 0 0
1730 14 1 10.617487699532536 19.381452673506693 46.007114540579344 0 0 0
1768 16 1 16.618354730841126 21.311557522659687 46.85615134148716 0 0 0
1769 16 1 17.180157182477142 22.08207992645122 47.93141788462587 0 0 0
5690 46 1 1.6781051905952178 16.810991608352786 50.34094427663572 1 0 0
4769 41 1 3.9639821668110193 4.4165070191928555 53.020969886570626 0 0 0
7596 56 1 1.2046165680087357 20.131030466997377 45.63167880911041 1 0 1
7558 10 1 4.853147312994486 17.392975870426937 44.356507256946 1 0 0
1514 14 1 17.696566919052756 19.02796128205418 52.6268238261161 0 0 0
2 58 1 8.090088502453638 2.0923855185461355 42.96841666472075 0 0 0
2560 25 1 16.655098583762232 6.433534531430122 43.272753429596605 0 0 0
7845 62 1 9.610010833939109 21.69410625640571 49.71510779411262 0 0 0
1504 12 1 9.805826442108058 17.110733177469186 41.12583973319054 0 0 0
2105 34 1 15.247938069494461 1.017700266103685 41.04770617408798 0 0 0
458 37 1 18.093193881421072 7.171031562098964 53.78337296690222 0 0 0
3447 27 1 15.511480879978267 14.6500150500094 40.88417420784319 0 0 0
8291 55 1 11.77928997121359 26.147773893368193 51.19215237070041 0 0 0
7499 57 1 0.18975495622240351 17.351078849983935 40.147699845406855 1 0 1
1803 16 1 14.862484551541622 21.184825708032267 45.07435459600513 0 0 0
1804 16 1 15.440281679528878 22.044684916932116 46.2228565642007 0 0 0
1805 17 1 11.608788873508445 24.540975303550415 46.89072155859391 0 0 0
1806 17 1 12.5236727962377 23.620874404922738 47.78171883722871 0 0 0
1807 17 1 13.556481936095722 24.420358543551433 48.59940391856259 0 0 0
1808 17 1 14.539669469858937 23.6454659212327 49.50101637245076 0 0 0
1809 17 1 15.328626039117555 24.47620413146133 50.49220061493496 0 0 0
1810 17 1 16.431066612471405 23.720451402864725 51.11866438300636 0 0 0
1811 17 1 16.92344856955891 24.484421310503333 52.355006063919056 0 0 0
1812 17 1 17.984116852981295 23.904796388551677 53.25951648765156 0 0 0
1275 52 1 4.725809559189246 14.736326851831604 39.1108845794839 0 0 1
2103 34 1 13.329403745924804 0.9167955958769681 39.437224948545854 0 0 0
1506 12 1 11.712050776265944 17.675652967730898 42.67968732544635 0 0 0
2108 34 1 17.96565025063733 1.641684014250794 43.78122974281079 0 0 0
7836 62 1 2.146053690333183 22.291459880878495 41.6418814425577 0 0 0
6135 39 1 3.1135904730195065 25.715801196378877 51.98967376066058 1 0 0
1840 17 1 9.781457138914972 24.526796159367784 45.17618819167595 0 0 0
6502 54 1 8.955991685575393 6.302251208366087 53.09126325034732 1 0 0
11 58 1 16.22467832723531 1.8687344290937096 51.00703653163136 0 0 0
7602 21 1 6.637518217421869 19.81768909205866 50.74764660994437 1 0 0
7292 16 1 5.603868311542259 15.024787822541123 49.6524790462789 0 0 0
1053 8 1 10.227083171534835 13.213384132264999 40.93043399958571 0 0 1
1515 14 1 18.316592125115722 19.985758117698456 53.476419537526596 0 0 0
7056 58 1 1.3526039168120958 12.007878869714013 40.9058663742351 1 0 0
1841 17 1 10.934539251386408 23.727197418405297 45.81368514173458 0 0 0
1879 19 1 14.530587555589884 25.52411327111636 45.086761699021025 0 0 0
1880 19 1 15.385565432732745 26.366946538360168 46.135841132516944 0 0 0
5689 46 1 0.4786603515405754 17.5562119561463 49.69384369608227 1 0 0
5372 41 1 1.5342044967507484 13.693117296297538 51.281826450241084 1 0 0
2556 25 1 13.75123857287418 6.372324955977828 40.09317922263667 0 0 0
6503 54 1 9.66677966980722 7.088438987823213 54.169681803336076 1 0 0
6494 53 1 1.82604675329565 5.921591272772351 46.30111706145646 1 0 1
6497 54 1 4.501851997371398 7.007169688819979 48.9570850236871 1 0 0
1055 9 1 11.941550997776512 13.178913060761017 42.58152079631227 0 0 0
2097 18 1 9.261411049137076 25.705235587019605 39.81322922991614 0 0 1
6963 17 1 9.058834844669839 10.342964534211442 53.71678755219863 0 0 0
8053 63 1 6.81209654279537 24.43461448460119 50.99548311432069 1 0 0
6954 17 1 0.8972742924941995 11.028777910985514 45.562926228603 0 0 0
6498 54 1 5.252011849011566 6.058684498882178 49.89571469987096 1 0 0
5691 46 1 2.0894517151557492 17.626603251571648 51.59339343893086 1 0 0
2100 19 1 11.921720652407632 26.38870249132537 42.429856618774174 0 0 0
2101 19 1 12.675603456185211 25.546566963437886 43.43921168480283 0 0 0
2102 19 1 13.590063213574712 26.372529067973392 44.26886869371374 0 0 0
4435 28 1 15.381698581014133 23.34231367641734 40.949899055265995 0 0 0
7597 21 1 1.7882149490564432 19.42592974616993 46.82798225263623 1 0 0
1837 17 1 7.482326893347342 23.381862331051966 42.380956608486485 0 0 0
7289 16 1 2.8118353157280755 15.744588855835227 47.19540580750774 0 0 0
7070 58 1 13.525085683057542 12.6019972888932 53.15139638512048 0 0 0
7559 10 1 5.210749762358796 18.083378801040983 45.695386329682734 0 0 0
1839 17 1 9.15861159191407 23.75937639834221 44.0044437285287 0 0 0
6501 54 1 7.610996435342179 6.8131255142440414 52.68886984998837 1 0 0
769 6 1 18.45381315256806 11.604575329997504 53.250631774552566 0 0 0
1723 13 1 4.551031589671876 19.86210207330951 39.6992324595172 0 0 1
6733 9 1 10.397925761270558 9.0135084949 50.20226873092625 0 0 0
7060 58 1 4.4467647345810475 12.254983619005948 44.529312707785195 0 0 0
8294 55 1 14.056769068642986 0.35498329497043096 54.241494409726535 0 1 0
7566 10 1 11.98589065212524 17.016896574954483 51.23976027485552 0 0 0
6955 17 1 2.000117533067629 10.41027700509781 46.40684501957812 0 0 0
5692 46 1 3.484047143277797 17.228874471558385 52.20163268288582 1 0 0
8050 63 1 4.177976479950583 23.728928848555146 48.390275070865314 1 0 0
4767 41 1 2.0661311156312854 4.543550281448665 51.52847587621725 0 0 0
8285 55 1 6.623376545881416 25.877081961567463 46.02588974803193 0 0 0
7839 62 1 4.730031745560441 21.332279394224884 44.049465493219245 0 0 0
7844 62 1 8.719102207452906 22.50164041954201 48.834249244742566 0 0 0
7062 58 1 6.539276451980487 12.574251995660354 45.925835759176316 0 0 0
6500 54 1 6.6435249768057085 6.069630606072356 51.907878669090834 1 0 0
8292 55 1 12.710559909900192 0.2790006686812957 52.065089427993996 0 1 0
668 37 1 6.183534808639849 6.135704890390928 41.00727294626874 0 0 0
8051 63 1 5.358049077104681 24.336108575549453 49.17653466845023 1 0 0
7562 10 1 8.322960066094346 16.875671443063005 47.77423637069066 0 0 0
7600 21 1 4.86416121482553 19.57879718855392 49.192082216206714 1 0 0
2999 24 1 17.174532167497805 10.024526160860027 42.70699652995382 0 0 0
5371 41 1 0.9999442841698598 12.84776241810359 50.10353105250943 1 0 0
1838 17 1 7.997447067342428 24.39932505673834 43.35814799200548 0 0 0
7835 62 1 1.401691115009442 21.550756771756586 40.55711159743336 0 0 0
5210 60 1 2.1013852362411236 9.33104321838252 51.31961449158152 1 0 0
7286 16 1 0.20208624645078296 14.67526706312826 44.70713027621971 0 0 0
7847 62 1 11.610860484277973 21.961416037152425 51.383918275026566 0 0 0
5955 46 1 1.0991294923345152 19.81637231229899 54.25270310299992 1 0 0
3221 24 1 15.35253835068179 10.18433955454651 41.258347281592066 0 0 0
3222 24 1 16.19855666796906 10.958786096383204 42.164041503508756 0 0 0
4434 28 1 14.305488493346395 24.069614592090588 40.22355596635889 0 0 0
7288 16 1 1.957782389041169 14.783826460615723 46.447997183972944 0 0 0
2107 34 1 17.041890780560628 0.8748517314188784 42.90225044373127 0 0 0
8049 63 1 3.199294024222341 24.671543945245503 47.509476508532174 1 0 0
2997 44 1 18.36071243018331 8.226466046605852 39.39189347941157 0 0 1
3448 27 1 16.427456105045184 15.583362360312094 41.735120362980894 0 0 0
4115 31 1 13.948856001861802 19.8920147155263 40.14432499369121 0 0 1
1511 14 1 14.937523382065296 20.294297265950078 50.27472190081283 0 0 0
6730 9 1 7.8503571465836615 8.128704025970315 47.540821185421756 0 0 0
1770 16 1 18.31485791448386 21.49599117840372 48.750128499212934 0 0 0
7291 16 1 4.577861207329872 15.880202671245163 49.059540702814935 0 0 0
834 7 1 4.678587967493375 10.968692399492896 38.835979655535446 0 0 1
714 5 1 15.805383125653528 8.800307744979026 45.69009238823381 0 0 0
234 36 1 18.32125434489958 3.767509644951117 48.60869822846848 0 0 0
7067 58 1 10.77336827783507 13.314503189190457 50.50342450546076 0 0 0
5982 48 1 1.371040148554438 21.69064402415318 50.16571604213694 1 0 0
7560 10 1 6.243715177971485 17.211856462614836 46.36103105456844 0 0 0
7565 10 1 10.738925286464893 17.701388107099948 50.581290631567946 0 0 0
6358 54 1 8.258162980654271 2.3840883661651255 52.37275351994042 0 0 0
7599 21 1 3.4181146883415447 19.356560272633608 48.67199780493946 1 0 0
7057 58 1 1.8663363174921268 12.917709068526003 41.92480493280284 0 0 0
1066 14 1 17.410498028884057 15.048894727601423 52.94198899752729 0 0 0
6453 1 1 0.9469723413744202 3.5475035391046217 40.82441226170181 1 0 0
6734 9 1 11.150293345486043 8.285319413441501 51.29441630154227 0 0 0
2558 25 1 16.12797692507232 5.99458941512413 40.79446839847221 0 0 0
6961 17 1 7.474383279446225 10.394714132833649 51.570218416697564 0 0 0
5694 46 1 5.20797098409627 17.49243189435608 53.82773483053723 0 0 0
6134 39 1 2.346420695028869 26.47496022593374 50.994121338174004 1 0 0
6726 9 1 4.337182655758841 7.90761619437267 44.165421570165385 0 0 0
7604 21 1 8.317991969477665 20.243900980681076 52.44324980847637 1 0 0
1882 19 1 17.227274984681454 26.562085193974774 47.931491970741305 0 0 0
7561 10 1 7.283667813834746 17.805238961587396 47.18360217667615 0 0 0
6962 17 1 8.155253614302278 11.1200609852511 52.669527536625395 0 0 0
4213 28 1 17.015169707735456 23.431823198589708 42.82365733220517 0 0 0
14 58 1 18.505404391925957 2.6109871955491633 53.78669593754605 0 0 0
768 6 1 17.62487537927052 10.5831121055014 52.62673265936323 0 0 0
757 5 1 8.809717851207422 8.170991270152864 38.89736690457087 0 0 0
7603 21 1 7.324432246189836 19.24375684959839 51.92830735057242 1 0 0
223 58 1 5.203404908497612 1.1481460710151892 40.61022497590818 0 0 0
4118 32 1 17.348053612052702 19.58290005111243 42.32898624926723 0 0 0
6960 17 1 6.552505779279309 11.285148128919605 50.73198727605994 0 0 0
6959 17 1 5.755871567189416 10.511283897376236 49.79584698678677 0 0 0
7849 62 1 13.548925615067182 22.073374764666973 52.9114635463281 0 0 0
7055 58 1 0.5775311893579896 12.87194575071764 39.94219756834822 1 0 0
7606 21 1 10.307672576041464 20.185640803365537 53.620429863663674 1 0 0
7061 58 1 5.079142485884533 13.0060508594313 45.6233170605361 0 0 0
3669 27 1 13.399082718417644 14.577770907731795 39.48270853131963 0 0 0
7848 62 1 12.431492388416 22.86803143496756 52.36069552182927 0 0 0
1800 16 1 11.899648378097803 21.819928396801934 42.50542012028239 0 0 0
1513 14 1 16.422710656615287 19.78397607727882 52.20298010880498 0 0 0
5212 60 1 3.804122846442164 9.435042009501448 53.03031328769198 0 0 0
8287 55 1 8.02334229614748 26.148975496581475 48.050853619866736 0 0 0
5984 48 1 3.1445029741753974 21.506515726472585 51.97128658324099 1 0 0
5373 41 1 2.813056949428044 13.13268688425276 51.81827563168625 1 0 0
5986 48 1 4.849011405331055 21.386925499340155 53.58664226425592 1 0 0
6723 9 1 1.4852456576351298 8.462219818619207 41.71069888928505 1 0 0
8282 55 1 3.537742350053283 26.653924787839905 43.395378674962345 0 0 0
716 5 1 17.300034334633676 9.21734565556499 47.62348919445326 0 0 0
8048 63 1 2.0722142054526507 23.948619037083695 46.71527499736683 1 0 0
7068 58 1 11.906940326174647 12.411976301362373 51.14478747846637 0 0 0
8056 63 1 9.365086196500444 23.99046252483868 53.90415638420389 0 0 0
6132 39 1 0.4582537047935461 0.07931218420624869 49.11502034147244 1 1 0
6454 1 1 1.8381888742640782 4.488688089178292 41.57864966385272 1 0 0
7564 10 1 10.301149600057798 16.941670953985362 49.335854655264406 0 0 0
7837 62 1 2.7510835231534845 21.35137214483216 42.58209180236316 0 0 0
6137 39 1 5.114200320672258 25.628426808568364 53.750080964135904 1 0 0
2104 34 1 14.027631242449141 1.698177576110106 40.493501839640004 0 0 0
7841 62 1 6.133387672360126 21.552908797931902 46.05609845126149 0 0 0
1503 12 1 9.334922043100846 16.378799281854644 39.93084737510193 0 0 0
6133 39 1 1.1938369502087125 25.873894290651485 50.18376366870173 1 0 0
6956 17 1 2.686795889967419 11.301533876652963 47.36574842900764 0 0 0
7065 58 1 8.798034428111066 13.342272886470075 48.904917154910535 0 0 0
6357 54 1 7.030778768932443 1.6269712080144312 52.01265666260659 0 0 0
8290 55 1 10.542946968244236 0.23328596158454226 50.6089854042785 0 1 0
7838 62 1 3.9287335960676546 22.188836703934697 43.08295031327631 0 0 0
8284 55 1 5.607311542166541 26.64099912053829 45.040266513086 0 0 0
6352 54 1 3.2869742092007144 2.4190620905569187 47.15344501078404 0 0 0
6353 54 1 3.6004585345699796 1.6091254694754284 48.34125466165584 0 0 0
6354 54 1 5.001045000348693 1.9183478676450951 48.82961744553756 0 0 0
6355 54 1 5.452643649424608 1.2363909117665912 50.066446067515415 0 0 0
5693 46 1 3.7623266631628223 17.784120368967564 53.55813832169855 0 0 0
791 6 1 5.248081322941684 10.054791586539292 39.95717583410636 0 0 0
4770 41 1 4.914845089183445 3.647658175257092 53.963410964187375 0 0 0
8279 55 1 0.9515249693306287 25.794316907958848 40.608814685929474 0 0 0
6735 9 1 12.292645235350204 9.228740572945657 51.77418555682537 0 0 0
2557 25 1 14.607201470799422 5.558586865252975 41.02788530146526 0 0 0
3 58 1 8.957969920156948 1.2215450549563334 43.903052320995606 0 0 0
759 5 1 10.269831736296991 8.236506810299536 40.763699590704945 0 0 0
8283 55 1 4.543201618359475 25.918679238392507 44.23931633689213 0 0 0
2098 19 1 10.275062399059237 26.52552903336557 40.62615595058822 0 0 0
1 58 1 7.24786101781661 1.194156948004661 42.09478923982631 0 0 0
6459 1 1 6.633200997042855 3.8284480647793946 45.709850172682046 0 0 0
6460 1 1 6.927765075381558 4.4389651740242 47.026938021227444 0 0 0
6461 1 1 8.154516249421315 3.8356512508206326 47.67223508938516 0 0 0
6462 1 1 8.695087316264459 4.551930149438328 48.92990164673214 0 0 0
6463 1 1 9.917744264284721 3.89858517183668 49.635488666613185 0 0 0
6464 1 1 10.908325832393432 4.856846161887478 50.291402649782235 0 0 0
6465 1 1 11.912872707001608 4.065657025432533 51.23011131874935 0 0 0
6466 1 1 12.738599821793875 4.979880750133246 52.041158776450544 0 0 0
6467 1 1 13.716212012866093 4.1699986568106695 52.90611073639239 0 0 0
8047 63 1 1.3859431340918758 24.627879534521988 45.46191656099024 1 0 0
5985 48 1 3.8003611172619034 22.243487181626985 53.089741900873 1 0 0
8288 55 1 8.797009210038519 0.41875494115492623 48.79770857808491 0 1 0
7296 16 1 9.098766418771612 14.91848845429349 53.367724971564186 0 0 0
758 5 1 9.369321798555928 7.237296806634873 40.069999269491916 0 0 0
7064 58 1 8.351012617345551 12.731823312902176 47.58859843523813 0 0 0
3450 27 1 18.181443415238817 15.645010194570569 43.721406407921776 0 0 0
8055 63 1 8.32850243109579 24.636287253819347 52.893644539995094 0 0 0
7846 62 1 10.494011941443679 22.504907063364097 50.597151777689106 0 0 0
6958 17 1 4.6301870343409295 11.278608817133657 48.99417149677478 0 0 0
4768 41 1 3.2292513183561264 3.6997278533653586 51.90871859803133 0 0 0
7069 58 1 12.470930254507808 13.27628388830547 52.266373723386664 0 0 0
3449 27 1 17.268997246832086 14.894307699957793 42.82520862828839 0 0 0
6722 9 1 1.1790094045720845 8.131377417911468 40.235317239570776 1 0 0
6725 9 1 3.400767720030637 8.756161680413191 43.325534934911715 0 0 0
1813 17 1 18.76974099046568 24.92945440329847 53.96765459938727 0 0 0
6964 17 1 10.131602269364633 11.32476778913599 54.39468961941708 0 0 0
7290 16 1 3.6774701247436874 15.053988613106453 48.22443215656653 0 0 0
7563 10 1 9.174608177114472 17.710414430213316 48.76992447858191 0 0 0
225 36 1 9.914448880470859 4.098276949150391 40.83356663849864 0 0 0
6957 17 1 3.5874443478509415 10.460181229747036 48.19477545923702 0 0 0
6499 54 1 6.400150158707947 6.6637683577762985 50.553832999580386 1 0 0
13 58 1 17.908078592925698 1.7345830648306015 52.688379537003996 0 0 0
3895 32 1 17.93083797327853 20.25167570967478 43.534159952964444 0 0 0
5375 41 1 4.7384729550194145 13.088372650933849 53.638812850025175 1 0 0
7605 21 1 8.932817369090728 19.748341358279166 53.71693992081208 1 0 0
1877 43 1 4.006115010543726 23.310154982093835 38.89053191258987 0 0 1
1502 12 1 8.447661840106976 17.28453101206472 39.12951035895061 0 0 0
4202 35 1 17.799672818299353 20.862600770659604 38.97454059359937 0 0 1
5213 60 1 4.859265178824441 8.66800405886032 53.709606426208694 0 0 0