LAMMPS data file via write_data, version 23 Jun 2022, timestep = 11111117

9706 atoms
2 atom types
9690 bonds
3 bond types
9674 angles
3 angle types
9658 dihedrals
3 dihedral types

0 36.89775039 xlo xhi
0 26.67072 ylo yhi
11.148891330998296 225.6027130690064 zlo zhi
0 6.747184181483714 0 xy xz yz

Masses

1 14
2 15

Pair Coeffs # lj/cut/omp

1 0.0914 3.95
2 0.1947 3.75

Bond Coeffs # harmonic/omp

1 449.5 1.53
2 449.5 1.53
3 449.5 1.53

Angle Coeffs # harmonic/omp

1 62.0967 114
2 62.0967 114
3 62.0967 114

Dihedral Coeffs # opls/omp

1 1.411 -0.271 3.145 0
2 1.411 -0.271 3.145 0
3 1.411 -0.271 3.145 0

Atoms # molecular

1 30 1 6.452051630568797 1.7221800618507386 16.755029193460526 0 0 0
2 30 1 7.009861622894135 0.9324735328841142 17.949939261497008 0 0 0
3 30 1 7.988046109193805 1.8375338198245128 18.792983226953112 0 0 0
4 30 1 8.655750242007553 1.1066660079139312 19.970784275309803 0 0 0
5 30 1 9.487255110835937 1.9769746862373108 20.919624468114876 0 0 0
6 30 1 10.122350570204144 1.1395057632661962 22.043344672592298 0 0 0
7 30 1 11.010191838107083 2.0527927274668785 22.9599214551903 0 0 0
8 30 1 11.794859812409412 1.4856781232425096 24.17959231955051 0 0 0
9 30 1 12.203841703868655 2.493638711351034 25.22007943509609 0 0 0
10 30 1 13.262317181078396 1.7882244076370246 26.172307345086622 0 0 0
11 30 1 13.585339047151864 2.8015605497273652 27.24963196873208 0 0 0
12 30 1 14.604599641894229 2.185257143186975 28.19661349027357 0 0 0
13 30 1 14.827104419026336 2.991707245211537 29.507742251734996 0 0 0
7291 45 1 3.751596138835766 1.651370727177067 25.853979431166238 1 0 0
1214 52 1 7.215920294815456 12.163504359119921 11.793683559838751 0 0 0
7684 47 1 6.805519484331938 6.602552836791078 30.075818909247207 0 0 0
1145 52 1 18.91831288357362 13.48804692757017 28.277430620323162 0 0 0
3355 33 1 13.779936062923934 10.354275932627736 13.807865846477721 0 0 1
2747 47 1 18.192939751977935 6.0293713038426375 21.012345945328583 0 0 0
3581 22 1 14.935432305616537 15.262185966212472 15.54303376217508 0 0 0
893 10 1 8.263351188920911 8.060845619522127 11.958112790041426 0 0 0
223 30 1 5.447213319638446 1.577077096876694 14.510283789452512 0 0 0
224 30 1 5.315055387416299 1.199885289885901 15.964940225205675 0 0 0
225 5 1 12.472115291026075 4.152906405513928 19.132935531264447 0 0 0
226 5 1 13.240847902541478 3.330471500634539 20.14885264731157 0 0 0
227 5 1 13.926240169039861 4.194267057601712 21.258233636750145 0 0 0
228 5 1 15.022653796554286 3.5040184403652406 22.1061896993961 0 0 0
229 5 1 15.427794589739605 4.244652884483461 23.351177017964424 0 0 0
230 5 1 16.5329621621045 3.438085882180001 24.043497950215116 0 0 0
973 9 1 4.042668040202375 9.605883391093988 12.759539348367461 0 0 0
7146 43 1 1.372436381424956 0.30553519092552583 30.003484221284097 0 1 0
1757 6 1 2.3461739319153847 18.98609491275508 11.191498152469062 0 0 1
972 9 1 2.6413809652596147 9.934751701467935 12.270699306136507 0 0 0
444 5 1 9.526977320746823 2.811433060796336 13.685308565917508 0 0 0
2370 15 1 18.00070274329727 0.9586591389873005 19.92434174249055 0 0 0
2968 47 1 16.5818775973252 5.542730292400375 17.47461435848175 0 0 0
2153 14 1 17.994724118568037 26.28269674911407 25.972597647701555 0 0 0
910 9 1 15.773042661716918 10.832107266907338 29.24093497186554 0 0 0
445 5 1 9.867035972870362 3.8325271925911935 14.769355071062908 0 0 0
447 5 1 11.520002170392392 4.021514806344157 16.800074065067804 0 0 0
448 5 1 12.180581738588867 3.2640335146060044 17.93172159430842 0 0 0
449 7 1 13.242376756288078 6.31076299558244 25.738437356008163 0 0 0
450 7 1 13.426844304415734 6.870757041710022 27.127526578306046 0 0 0
451 7 1 14.598395174421347 6.286944648165778 27.81864979844102 0 0 0
452 7 1 14.939955495692502 6.966721444764659 29.12920712914371 0 0 0
453 7 1 16.131774019958055 6.436370026221052 29.88768471151965 0 0 0
454 7 1 16.314069841320364 7.199820031530492 31.265864906399106 0 0 0
232 5 1 18.304883946498794 3.6623749705181967 25.957871253025225 0 0 0
8062 54 1 1.9565133295484651 10.13833743752065 23.24432345862632 0 0 0
3580 22 1 14.398085352494821 14.315100439801888 14.567340022665656 0 0 0
4026 25 1 16.48770091908366 16.685519943160468 11.564317358264013 0 0 1
3585 22 1 18.10385194218067 15.36630052660041 19.64548454708652 0 0 0
2141 14 1 9.287680766004643 25.54023957601973 13.556837270686458 0 0 0
1771 62 1 17.68899128405075 21.323023333954616 27.016211272679655 0 0 0
3801 22 1 11.969262542986666 14.605747201810987 11.5274616046102 0 0 0
9403 57 1 4.630328762474321 23.869302210007785 26.20918661751641 0 0 0
1216 52 1 8.778195326648772 12.327863436028213 13.846242361384569 0 0 0
9185 62 1 7.308315537493733 21.316979883071873 24.42692852936341 0 0 0
2058 12 1 3.163672906802257 22.905610014623907 11.628470070042637 0 0 0
668 7 1 9.139542234077677 6.458159513756183 20.845600773172926 0 0 0
669 7 1 10.339796081936088 6.077253686582346 21.71557530122584 0 0 0
670 7 1 10.48043448707443 6.869339029438279 22.953645208685145 0 0 0
671 7 1 11.814783855693294 6.293144516415252 23.583142323093668 0 0 0
672 7 1 11.996644476905649 6.800918229289268 25.03199007302088 0 0 0
673 10 1 10.968303007387505 8.426038095883163 16.359977239815386 0 0 0
674 10 1 11.383446177207652 7.7208228458593995 17.641322505297154 0 0 0
675 10 1 12.211238857206764 8.60451438720055 18.527943800994738 0 0 0
676 10 1 13.000287003161814 7.839791109368372 19.561104385552586 0 0 0
677 10 1 13.85608994804834 8.6384567689375 20.576897779764266 0 0 0
678 10 1 14.943108808411738 7.9925844926209475 21.333567945523995 0 0 0
679 10 1 15.187426303384152 8.643334765856391 22.649556149932415 0 0 0
680 10 1 16.10809538220185 7.857694596781653 23.597503832076093 0 0 0
681 10 1 16.341314737560978 8.625153985919063 24.898341495804367 0 0 0
682 10 1 17.495327443373384 8.027365445066943 25.672376187580593 0 0 0
659 6 1 2.83598044508289 5.109115417753074 11.384921788673902 1 0 1
2368 15 1 16.942840202583547 1.186260428368373 17.756945831130757 0 0 0
4187 39 1 15.571262838632077 21.075663692318617 11.673221564713177 0 0 0
4417 28 1 15.11979793546388 22.90159173990595 16.197560430264954 0 0 0
892 10 1 7.2427853754542255 7.202586768517172 11.177597377995408 0 0 0
8063 54 1 2.118998046561571 10.741917049141891 24.6844857460855 0 0 0
2964 36 1 13.564218576716877 5.081165304898337 13.355472517070677 0 0 1
896 10 1 10.080861549220318 7.568742464475011 15.451167829122664 0 0 0
897 9 1 5.841866612969154 10.580583142746729 15.93511994198558 0 0 0
898 9 1 6.854361002913349 9.864853417101736 16.83868296674912 0 0 0
899 9 1 7.6129865067306035 10.623211073050387 17.97692288143801 0 0 0
900 9 1 8.336475021542517 9.788388244523338 19.06350842783757 0 0 0
901 9 1 8.846940140454159 10.839036837039192 20.098749533434237 0 0 0
902 9 1 9.55183454965919 10.041539791648463 21.20173775105988 0 0 0
903 9 1 9.851884105726258 10.812476980281037 22.485570281271706 0 0 0
904 9 1 11.230568339589862 10.561084456822401 23.07827380745414 0 0 0
905 9 1 11.445338706145069 10.91327226761368 24.526364270559625 0 0 0
906 9 1 12.849783754334043 10.763624256548136 25.0661984084076 0 0 0
907 9 1 12.985304739505409 11.279098145613412 26.469885583567383 0 0 0
908 9 1 14.337747039722323 10.903904361333431 27.08164127415717 0 0 0
909 9 1 14.44095862500017 11.095766525300421 28.523068914412004 0 0 0
7288 45 1 1.2996470410234853 2.276106709502098 22.90797888455092 1 0 0
9629 12 1 1.4906198776331814 25.47405090592375 15.524423898189887 1 0 0
9638 12 1 7.120513955354439 0.17922171063069683 25.19523814742709 0 1 0
8742 56 1 9.173442794795413 18.03001288380667 28.30554161678122 0 0 0
8295 5 1 11.326679463626542 13.073712133528732 29.363751120475452 0 0 0
9644 12 1 11.577346023422903 0.7947351997365926 31.33754889677102 0 1 0
2966 36 1 15.105884026939014 5.365270348559598 15.406080262497433 0 0 1
7682 47 1 5.670349940986361 6.212136464272853 27.903213871184725 0 0 0
7290 45 1 2.8032897267040764 2.4204346977193016 24.951731905053123 1 0 0
975 9 1 5.701799622849543 9.717810547146593 14.700330945148245 0 0 0
1134 52 1 11.366152184503488 12.14460317175861 16.64793979156149 0 0 0
1135 52 1 11.729944707394052 12.909644888546842 17.94247648960188 0 0 0
1136 52 1 12.885421134192375 12.187449457680184 18.64027501036219 0 0 0
1137 52 1 13.50338670434746 13.052984666094115 19.710880778081172 0 0 0
1138 52 1 14.57934168260902 12.398568680923686 20.574166037085412 0 0 0
1139 52 1 15.01503757515852 13.21602497770357 21.761848917997717 0 0 0
1140 52 1 15.874581189153858 12.467012320352657 22.77159282593785 0 0 0
1141 52 1 16.053814233932965 13.300196567332222 24.07929937285683 0 0 0
1142 52 1 16.94728891193327 12.489791220768941 25.02525498107351 0 0 0
1143 52 1 17.407570392007557 13.222734661012371 26.289392779695564 0 0 0
7297 45 1 8.043255405162713 2.1894904892280076 32.163901078099386 0 0 0
1996 12 1 15.118231791828848 24.900013795959673 29.754646744856533 0 0 0
911 9 1 15.778602413795989 11.190350786180934 30.717769455561562 0 0 0
4104 34 1 12.535629510932917 18.469774971183167 12.191039701492624 0 0 0
8070 54 1 8.322644453333961 11.566127588985323 31.18385162361603 0 0 0
1995 12 1 15.102972065814141 24.483449814757797 28.299932400042998 0 0 0
7147 43 1 2.8061527338986085 0.08634769271612894 30.55011320151515 0 1 0
1218 52 1 10.311930812263098 12.745462216229477 15.764085659281845 0 0 0
1219 10 1 9.155511173883268 14.696023911857655 21.131223654070826 0 0 0
1220 10 1 9.515589328880209 15.34501682072247 22.417327941055035 0 0 0
1221 10 1 10.794244107266941 14.767182525808611 23.069944423198386 0 0 0
1222 10 1 11.199594769162882 15.491881664249233 24.34555257196795 0 0 0
1223 10 1 12.444893924089781 14.846394599773907 24.975334196948545 0 0 0
1224 10 1 12.795337158169982 15.610721042746352 26.220786874781453 0 0 0
1225 10 1 13.997688099113736 15.119567070313542 26.99020844781267 0 0 0
1226 10 1 14.125410898792843 15.482047733407585 28.41317630646806 0 0 0
1227 10 1 15.43230308568042 15.080833932211826 29.124565416674336 0 0 0
1228 10 1 15.840782183218689 15.757803996647555 30.418807308295992 0 0 0
1229 10 1 16.938676262705524 15.165836507659405 31.27267183285964 0 0 0
4414 28 1 12.891062349743992 23.461564474825416 12.998539410515436 0 0 0
8064 54 1 3.4489807952218428 10.446391586427115 25.386375451218463 0 0 0
1436 10 1 4.131093061585047 14.9799688839719 13.648997390485178 0 0 0
5931 1 1 2.177049914491077 13.917060459358781 30.311587973160456 1 0 0
8954 59 1 1.1620972909240048 18.79956619632022 22.74196611590967 1 0 0
5932 1 1 3.1281281636921845 13.185706594880987 31.192756533589083 1 0 0
8513 54 1 5.449339653104523 15.934454974251414 28.23007110656393 0 0 0
1438 10 1 5.547533696614638 15.056145012536094 15.821136015158137 0 0 0
1439 10 1 6.307054607671003 14.279828715275745 16.906507853667005 0 0 0
1440 10 1 6.7438672560712165 15.114849502500896 18.041086543799807 0 0 0
1441 10 1 7.76684191065134 14.480585717908914 18.957350885001393 0 0 0
1442 10 1 8.316758894254187 15.424782715099518 20.07663224862388 0 0 0
1522 60 1 9.756587170885254 16.631052469331138 15.883535283492911 0 0 0
1523 60 1 11.071327936967956 16.266645121777263 16.52937016277887 0 0 0
1524 60 1 11.343685990892205 16.993771867112592 17.838735246430026 0 0 0
1525 60 1 12.499575079856578 16.417872756306046 18.698948186837626 0 0 0
1526 60 1 12.622276065744295 16.95741395866321 20.157077033611344 0 0 0
1527 60 1 13.905564451012301 16.475296408279902 20.838908147197046 0 0 0
1528 60 1 14.05537467314484 17.150090011348713 22.203093658645038 0 0 0
1529 60 1 15.383169379358986 16.87158968898361 22.810368995901143 0 0 0
1530 60 1 15.523399548449214 17.477805544358183 24.188862008422213 0 0 0
1531 60 1 16.921977419134606 17.21545741864072 24.748733385945734 0 0 0
7467 46 1 10.15022056727976 4.6294984727641175 29.112295469202277 0 0 0
4032 34 1 17.224803704003595 18.916894639577432 19.86946130276921 0 0 0
2364 14 1 8.039883536136795 25.963890138666027 12.734723665190844 0 0 0
1437 10 1 5.049539195761343 14.203194881296378 14.641178044613874 0 0 0
7292 45 1 4.242474462173722 2.497086751493874 27.01439843614395 0 0 0
2586 15 1 12.099291629170077 0.5081455130599024 11.896964013887477 0 0 0
4413 28 1 11.886874106827396 22.620066524743535 12.181489022697953 0 0 0
1600 60 1 9.727441080502983 16.188999312544123 14.426993225908337 0 0 0
1601 9 1 9.383290066269241 18.88425983065329 20.637147092972526 0 0 0
1602 9 1 9.479023330606735 19.528136464657063 21.979475725744564 0 0 0
1603 9 1 10.772154414410016 19.103773732105388 22.6820436633676 0 0 0
1604 9 1 10.834932392747046 19.65379772191248 24.100938127081044 0 0 0
1605 9 1 12.155262384494604 19.453999759744928 24.808931616610295 0 0 0
1606 9 1 12.235943949007096 19.95373158213925 26.24766360021477 0 0 0
1607 9 1 13.492946635216283 19.52449423276869 26.933840129284235 0 0 0
1608 9 1 13.716383579006498 19.95040215771492 28.32032746417024 0 0 0
1609 9 1 15.035879756755781 19.546670023451018 29.038594870879617 0 0 0
1610 9 1 15.371374144169453 20.266830494068508 30.390070415152096 0 0 0
7677 47 1 1.6737679083234904 6.402150583984551 22.871927991560472 0 0 0
7848 43 1 9.987835243007519 8.630296798783007 27.72172227129753 0 0 0
4421 28 1 18.121858863176197 23.08455355420305 20.078645390537872 0 0 0
1534 60 1 18.463110323265983 17.61257511866714 28.50467788860205 0 0 0
667 7 1 8.920988546948376 5.715931085666404 19.512750340003734 0 0 0
9406 57 1 6.155919192998498 24.595594934200637 29.77458030894358 0 0 0
2738 16 1 17.474262262099266 3.5226582900238204 12.028024638586432 0 0 1
7287 45 1 1.0701765591294499 1.4361470185580059 21.600750664884643 1 0 0
1675 9 1 5.190077074484228 19.314984754936148 15.52849890749195 0 0 0
1676 9 1 6.062382399966479 18.460031994373356 16.509805802227486 0 0 0
1677 9 1 6.832115991541564 19.17724807920253 17.648123787623064 0 0 0
1678 9 1 7.865791750846538 18.41011345094146 18.562471741578264 0 0 0
1679 9 1 8.077851423941205 19.261374934983593 19.857205527582465 0 0 0
1759 62 1 9.042805711034484 20.4521718998754 14.383628647410262 0 0 0
1760 62 1 9.697159553576128 21.33981204037955 15.410088419175349 0 0 0
1761 62 1 10.650057673820262 20.81104366523327 16.510419008049332 0 0 0
1762 62 1 11.39330346581887 21.80401751921982 17.395116540537373 0 0 0
1763 62 1 12.310856039710627 21.091644719386135 18.285256239430716 0 0 0
1764 62 1 12.887730213000673 21.999597945120605 19.387767408663258 0 0 0
1765 62 1 13.454361316380044 21.12585049883987 20.5523862336385 0 0 0
1766 62 1 14.078976698946372 21.93261530310372 21.69428518682944 0 0 0
1767 62 1 14.888910930784183 21.141696200101464 22.694234549730176 0 0 0
1768 62 1 15.631797283884275 22.009077923827938 23.736413313716064 0 0 0
1769 62 1 16.62303231855059 21.265579610334033 24.652975179437675 0 0 0
9402 57 1 3.215907933779948 24.1231049130236 25.607646138464617 0 0 0
666 7 1 7.749325228899688 6.266405849877958 18.787699161110215 0 0 0
1435 50 1 3.7210550694553026 14.04540603966261 12.483881035886286 0 0 1
4106 34 1 14.041474991730883 18.88523056438367 14.249807555098391 0 0 0
5103 56 1 0.9674761951304955 4.5639458890423965 29.260230708073305 0 0 0
6382 39 1 1.9655775716002477 18.22979468370529 30.33731900095027 0 0 0
1982 62 1 7.96359125912275 21.05883397525297 13.441252028563985 0 0 0
1983 12 1 6.296557500690175 23.158538442323017 15.602508884783841 0 0 0
1984 12 1 6.511445841517162 23.636338450542237 17.031619388908027 0 0 0
1985 12 1 7.779824840700583 23.10236238435462 17.764467784129508 0 0 0
1986 12 1 7.754019229056491 23.69990695236582 19.211474431483445 0 0 0
1987 12 1 9.100481174468179 23.44832246774959 19.889945024319616 0 0 0
1988 12 1 9.293460919734729 23.81646859316196 21.35822774090196 0 0 0
1989 12 1 10.748226053275037 23.81632080312297 21.90308164922535 0 0 0
1990 12 1 10.839568519131 24.103130131981445 23.38390922758814 0 0 0
1991 12 1 12.106724008522907 23.697185650803615 24.13833195051329 0 0 0
1992 12 1 12.320234706985763 24.37053245628513 25.485629946290075 0 0 0
1993 12 1 13.65635030921865 24.187929840503703 26.14271535827051 0 0 0
1994 12 1 13.695208324786867 24.583937013904276 27.611527614271996 0 0 0
8739 56 1 7.551233553689258 17.017478983290456 24.964018562636156 0 0 0
1434 50 1 2.549109151088162 14.672810718613293 11.73687755782635 0 0 1
9628 12 1 0.15393401627979855 25.93435594828335 14.901749129189046 1 0 0
1597 60 1 7.240308534758335 16.731019142170776 11.515727896642789 0 0 0
8507 54 1 0.6080209324686998 15.131498494933547 22.384796068537376 1 0 0
9178 62 1 2.6253429230489504 21.51342650947983 16.942432471684512 0 0 0
2967 36 1 15.261383492857087 6.0280821249366765 16.784514590875396 0 0 1
6766 41 1 3.146777775453602 22.174583842470096 30.975813064268564 0 0 0
661 6 1 4.417680316984016 5.38921750252687 13.347244301764583 1 0 1
2060 12 1 4.712962479649184 23.304872459146804 13.69161864978043 0 0 0
2061 12 1 5.255891581069331 24.02562280856692 14.830025000572244 0 0 0
8730 56 1 0.8954006055437043 17.176636185846117 15.6267372785721 0 0 0
2142 14 1 9.368559319386879 26.245919417722977 14.893092229000967 0 0 0
2143 14 1 10.506642493653668 25.637384795889094 15.724480405652812 0 0 0
2144 14 1 10.542608296083191 25.900667477564227 17.2611875273604 0 0 0
2145 14 1 11.90701036922295 25.41192908032895 17.79292324503546 0 0 0
2146 14 1 12.093105896906867 25.868519886198822 19.195842362096716 0 0 0
2147 14 1 13.609843610210929 25.973557166072403 19.58451671719481 0 0 0
2148 14 1 13.836793105144674 26.302559335229624 21.05668536925699 0 0 0
2149 14 1 15.201006930836215 26.325874362717585 21.63617674434844 0 0 0
2150 14 1 15.219442829776844 26.457407628646408 23.167503328347145 0 0 0
2151 14 1 16.598340248498165 26.292990288439576 23.789377581666074 0 0 0
8957 59 1 3.766167651703885 19.819360864595026 25.413314529092197 0 0 0
9640 12 1 8.60912186482823 0.6246657175914042 27.2734253249533 0 1 0
9635 12 1 5.693701589053184 25.733146407280344 21.78345414110784 0 0 0
7294 45 1 5.74298491779783 2.3968487821448283 29.07331034833774 0 0 0
5930 1 1 1.7452698936481386 13.019668562552466 29.155191603342047 1 0 0
3578 26 1 17.655529681465435 11.99894887533054 12.459068383272054 0 0 1
7849 43 1 10.559699082785219 9.444540569273583 28.88570008781779 0 0 0
2365 15 1 14.308191400451374 1.6605528376908893 14.998941338570342 0 0 0
2366 15 1 15.336350121820644 0.8904460150600877 15.77512553762259 0 0 0
2367 15 1 15.739518681953296 1.7797687582160981 16.91675866372991 0 0 0
1674 9 1 4.783124138499448 18.472365675488884 14.275523704318495 0 0 0
1532 60 1 16.84244245403154 17.511411572259497 26.29000250374488 0 0 0
8296 5 1 11.60395368046127 13.936024791720541 30.58180808822054 0 0 0
7468 46 1 11.393807046313997 5.283194018660523 29.80831016672874 0 0 0
3802 22 1 12.819865931073233 13.9232036969213 12.551472732570627 0 0 0
7676 47 1 1.3858778769437037 5.841421599832628 21.49871216900329 0 0 0
2588 15 1 13.698341827613874 0.7940049358790795 13.868737676891616 0 0 0
1981 62 1 7.6420492836401905 20.24629880557585 12.213376732883201 0 0 0
8282 5 1 0.7579223924136083 12.407189095343474 16.394194349547615 0 0 0
8736 56 1 5.096092331354106 17.333732290372236 21.93041648999742 0 0 0
9189 62 1 10.385068317459016 21.848814444606937 28.45209959076702 0 0 0
3196 19 1 17.666586300117366 9.995620805607475 18.848064616254458 0 0 0
222 30 1 4.243652093314153 1.016093934486674 13.746885838931403 0 0 0
8962 59 1 6.912303604015792 20.266597052114065 30.983988024425166 0 0 0
8510 54 1 3.4164183625964277 14.761916465785465 25.031046541037846 0 0 0
894 10 1 8.666754685440203 7.456496849926473 13.337968226041019 0 0 0
7289 45 1 2.4799821930913195 1.6524987930321144 23.633152480538996 1 0 0
233 5 1 18.493019862636856 4.448057483141406 27.20398244563474 0 0 0
7683 47 1 5.915678536025018 7.234498760933797 29.028713951566726 0 0 0
2969 47 1 16.719376353437504 5.988950204815742 18.93018077640726 0 0 0
3804 23 1 17.953528225476795 17.02804462503089 13.611403436435317 0 0 0
7678 47 1 2.9491600257082915 5.933356952575587 23.568643700717843 0 0 0
3354 33 1 12.874681720492005 9.491203792603129 12.90959381093534 0 0 1
4419 28 1 16.279835696048593 22.830892426700657 18.34154807261607 0 0 0
1673 9 1 3.7798158594237647 19.153125124659898 13.366643881879064 0 0 0
8281 5 1 0.6600190988474209 11.83568911883156 14.983901669315754 0 0 0
4636 30 1 17.84132530148528 25.30021571561686 14.053555077250868 0 0 0
8509 54 1 2.2526718455611636 15.267457317406576 24.275491674671812 0 0 0
1997 12 1 16.454691267302593 24.635051888467505 30.43036624540587 0 0 0
455 7 1 17.667327149655648 7.009281577670855 31.969198287691075 0 0 0
2152 14 1 16.579404592948777 26.524699299312918 25.32571036261953 0 0 0
5104 56 1 2.3463821564256215 4.337053623443465 29.764021001367094 0 0 0
8065 54 1 3.586808332391066 11.153220669467883 26.733202642857393 0 0 0
8953 59 1 0.866499667239244 19.402996727972173 21.353509622203205 1 0 0
2587 15 1 12.714519878822943 1.462463134509408 12.93009138970673 0 0 0
9401 57 1 3.0668800959251525 23.793224703594422 24.13444802374633 0 0 0
8511 54 1 3.916860531507058 15.620375434639739 26.19590091685692 0 0 0
9191 62 1 11.619104251759982 22.008096753383118 30.599568665460964 0 0 0
7295 45 1 6.421730785541434 1.6300566500919804 30.20233001168843 0 0 0
1217 52 1 10.171098540375903 12.074166829409677 14.429445135641188 0 0 0
6765 41 1 2.034283755290285 22.773241846733633 30.088965009123477 0 0 0
5105 56 1 2.4457205569782454 4.55866218503994 31.243240944908447 0 0 0
3583 22 1 16.626182371722876 15.47008191901278 17.56932382451831 0 0 0
3584 22 1 17.455654594747283 14.543082834436687 18.541962058518607 0 0 0
2970 47 1 17.776330624868745 5.285204141995238 19.749024895078747 0 0 0
684 10 1 18.849941558982366 8.168586875096096 27.722164212347533 0 0 0
8958 59 1 3.903583434966725 19.49566451010075 26.832869760041127 0 0 0
16 30 1 17.731186068037914 2.5643585056604534 32.25401332428136 0 0 0
7469 46 1 11.580739501944015 4.9002446238975725 31.287278240874542 0 0 0
7850 43 1 11.47629297526323 8.696358256325802 29.900812648175627 0 0 0
9192 62 1 12.405442946343843 22.818160807253733 31.578275388477795 0 0 0
9639 12 1 8.536605349754458 0.031116050664455153 25.87159480557321 0 1 0
9184 62 1 6.596556811580228 22.021773112976398 23.269323431199297 0 0 0
4028 34 1 14.284152871080988 19.19917021706194 15.693840067796241 0 0 0
4029 34 1 15.69636434909344 18.90955609528272 16.186844330790656 0 0 0
4030 34 1 15.752565482218902 18.900082734550747 17.765579830562288 0 0 0
4031 34 1 17.235332477339966 18.884235710771993 18.32635450261212 0 0 0
7852 43 1 12.795483159990754 8.85862301142611 32.08304833992983 0 0 0
8516 54 1 7.725516044231546 15.30036553867329 31.283784523277948 0 0 0
974 9 1 4.374110340674545 10.116947350870342 14.130015977724282 0 0 0
9400 57 1 1.6793554823227412 23.914956382524036 23.471909070224605 0 0 0
14 30 1 15.917723067818 2.4134870529902983 30.392819910776947 0 0 0
3803 22 1 13.583682706156354 14.991502876860592 13.412555174872809 0 0 0
8297 5 1 12.590122922158477 13.340163441057006 31.523385586343583 0 0 0
9180 62 1 3.7776755726346876 21.737651666814106 19.190369316267414 0 0 0
8740 56 1 7.808045498669067 17.99099234397242 26.11330940629783 0 0 0
6381 39 1 1.7148250914536032 17.438247370801633 29.09111418909627 0 0 0
3276 19 1 16.053728714109965 9.73988681795124 16.85954886746339 0 0 0
3582 22 1 15.882620081858324 14.702258336692674 16.529222321448287 0 0 0
2965 36 1 13.892887779548373 5.918800161083431 14.60960495232323 0 0 1
4105 34 1 12.697434673514364 19.148333732861794 13.585451069755708 0 0 0
2976 18 1 16.587763618094193 7.628816182157046 12.341486889048745 0 0 0
4415 28 1 13.636319551479671 22.71672025063563 14.100085152935634 0 0 0
4416 28 1 14.332517813519042 23.631417765073056 15.089098131921908 0 0 0
4634 30 1 16.53419393426931 24.849275229848594 11.917463341429567 0 0 0
446 5 1 10.882504904777402 3.1176277221905386 15.782968470047049 0 0 0
7293 45 1 5.099961364797798 1.6105102559201427 27.974355850083697 0 0 0
3579 20 1 18.037600326149896 12.734589621511525 13.774179100511436 0 0 0
9183 62 1 5.660154515073079 21.08027724315836 22.49257575209893 0 0 0
9404 57 1 4.678834511209594 24.36258135521104 27.640932799061726 0 0 0
4188 39 1 16.845801620306606 20.602012518164745 12.341474071144845 0 0 0
665 6 1 7.394549755069086 5.450245339363701 17.49773730757841 0 0 1
9181 62 1 4.227370167704169 21.020344813520644 20.459001480413427 0 0 0
8731 56 1 1.9836061195367745 16.513263176514705 16.447020004907444 0 0 0
3197 19 1 18.20082329382055 10.8853191702726 20.027243964419817 0 0 0
1611 9 1 16.522356682417573 19.629997112707816 31.19799058336505 0 0 0
5547 59 1 1.8365046489006067 8.334361139161134 29.216030847834777 1 0 0
4189 39 1 17.274855770733375 21.4518055636948 13.52175170685052 0 0 0
8732 56 1 2.2665569409613147 17.188536572864198 17.78131593435249 0 0 0
6764 41 1 1.7030464949333686 22.001553444556112 28.786006274746775 0 0 0
9190 62 1 11.033393078325728 22.79591918517271 29.46742320696146 0 0 0
8959 59 1 4.976014073750304 20.312913561953668 27.478829865440417 0 0 0
3274 19 1 14.687982475657783 9.552907731520076 14.737091671784075 0 0 0
442 63 1 8.037627866687208 2.5878123665925536 11.563603031097216 0 0 1
9408 57 1 7.510041910725006 24.951550598883774 31.92589517568139 0 0 0
7470 46 1 12.844935726030162 5.448828352572008 31.8866352677491 0 0 0
8283 5 1 2.13360783531784 12.075141282162793 16.947368684014734 0 0 0
9188 62 1 9.62869460510636 22.563949919177748 27.34144452132358 0 0 0
7685 47 1 7.162217274805092 7.476671496205557 31.230746317581016 0 0 0
4635 30 1 17.620831969651235 25.655160635129914 12.575998179812256 0 0 0
9179 62 1 2.807043996587406 20.935936085932173 18.330521395055413 0 0 0
8743 56 1 10.286497874995785 17.379270172707532 29.10135484859228 0 0 0
8745 56 1 11.985838331689674 17.707014400154193 31.11818618336185 0 0 0
9177 62 1 1.6025367548378753 20.60894383727591 16.206910813855682 0 0 0
8069 54 1 6.94909175757763 11.696473613549278 30.54760216118088 0 0 0
443 63 1 8.651312040699358 3.465955973713873 12.620611065988191 0 0 1
4185 27 1 11.347924576009827 19.00909926595725 11.40665164994414 0 0 1
9633 12 1 4.193353229110088 25.593584150968884 19.739294122074035 0 0 0
663 6 1 5.953571679061752 5.462219678310696 15.346274687080236 0 0 1
2154 14 1 18.013394898185723 0.058146767883837894 27.414175979861746 0 1 0
9637 12 1 7.1394107679180765 26.082399651333922 23.860771509658363 0 0 0
4027 23 1 17.871083211827525 16.505993719467515 12.173585276758773 0 0 0
9187 62 1 8.836397264015254 21.62993638767891 26.411575471202333 0 0 0
4422 28 1 18.48261604453586 23.867061456980483 21.362835867538152 0 0 0
3275 19 1 15.48540342519471 10.449938718032232 15.664988437081831 0 0 0
9407 57 1 7.503167579727659 24.4715380994499 30.45180488069916 0 0 0
2978 18 1 17.963035677126406 7.813012922601942 14.441606810992235 0 0 0
660 6 1 3.269721860179859 6.0306821598286 12.513003533019104 1 0 1
7296 45 1 7.297636809299969 2.671125192914675 30.995968869617897 0 0 0
8733 56 1 3.253380997074827 16.445697070626153 18.66394188541393 0 0 0
6380 39 1 0.5437470986518156 18.00136141710405 28.27487637692033 0 0 0
2363 14 1 7.839820372421938 25.22094292983862 11.430955253129103 0 0 0
1598 60 1 8.562720909895779 16.42842144218881 12.252261330860012 0 0 0
8061 54 1 0.914452951903603 10.812586306510056 22.37740980278793 0 0 0
8735 56 1 4.6587854743051915 16.576505800721023 20.709427163415498 0 0 0
9630 12 1 1.68147021000021 25.985318290646077 16.957491750912574 1 0 0
895 10 1 9.396472122606482 8.37301189289461 14.29221523023895 0 0 0
1758 6 1 3.40431145635866 18.373871067114415 12.084648993418652 0 0 1
7455 46 1 1.3649234250758695 3.385943044943118 16.757490194258583 0 0 0
7456 46 1 2.8243997963740215 3.53440165114651 17.308334416847362 0 0 0
7457 46 1 2.9085659421386056 3.6628765224968953 18.819752109518117 0 0 0
7458 46 1 4.345761292347778 3.9317244775977334 19.24797097647739 0 0 0
7459 46 1 4.425893228188139 3.9267419712705993 20.723290469988637 0 0 0
7460 46 1 5.841954271408909 3.7618541487067194 21.20162280107613 0 0 0
7461 46 1 6.032219288445709 3.7237255040338786 22.749547046004324 0 0 0
7462 46 1 7.395174342618486 4.147517944080034 23.409656122771857 0 0 0
7463 46 1 7.580013285914299 3.6944276622402703 24.875341218374494 0 0 0
7464 46 1 8.535119716669227 4.5765043067554405 25.596528688878468 0 0 0
1612 9 1 16.936830091030597 20.577598827613173 32.362066310008146 0 0 0
662 6 1 4.771722040912896 6.073094865116316 14.67257838568987 0 0 1
8963 59 1 7.938488655503713 21.103695779675952 31.740451519107914 0 0 0
4420 28 1 16.962520445183966 23.773662794589 19.33079960326871 0 0 0
9636 12 1 5.880202128043292 26.41446490942522 23.159859150252274 0 0 0
9643 12 1 11.435840064612561 0.43986253327738684 29.89966589598721 0 1 0
9186 62 1 8.089793463144343 22.33027302166756 25.292362937525326 0 0 0
1770 62 1 17.01362144074592 22.075018087966303 25.82828634722363 0 0 0
8744 56 1 10.716789436860127 18.198513979144536 30.386202008236378 0 0 0
221 30 1 3.865293593845611 1.3891707608351833 12.296102082036967 0 0 0
7679 47 1 3.192321225786815 6.628696780693392 24.903890859744962 0 0 0
7680 47 1 4.315585922255148 5.980645960224992 25.664313752072218 0 0 0
7681 47 1 4.667284964740707 6.759592592509466 26.937541442415593 0 0 0
2962 36 1 12.048429863437791 4.764668400852907 11.317432634771038 0 0 1
8960 59 1 5.240379901863362 19.964587288523457 28.93427222546971 0 0 0
8737 56 1 6.164825151498043 16.663547887819927 22.771151741787477 0 0 0
231 5 1 16.94600412295172 4.1493355811473736 25.29001360484778 0 0 0
9399 57 1 1.5465364973229299 23.590238171095454 22.005899227177057 1 0 0
1215 52 1 8.68999784044067 12.352829674828731 12.271877832802835 0 0 0
7837 43 1 1.6115755007575736 8.335145549900172 16.248345387265324 0 0 0
7148 43 1 2.835980646497026 0.12147654809029529 32.105447043255246 0 1 0
6383 39 1 2.9404825413316455 17.490839098090202 31.359869474927905 0 0 0
220 30 1 2.7772861064300067 0.5396423597330652 11.680320032449716 0 0 0
7838 43 1 2.4002617554567944 7.548082022680277 17.350695659934544 0 0 0
7839 43 1 3.0039133719943085 8.471512828392202 18.388169499677726 0 0 0