LAMMPS data file via write_data, version 23 Jun 2022, timestep = 11111117

9706 atoms
2 atom types
9690 bonds
3 bond types
9674 angles
3 angle types
9658 dihedrals
3 dihedral types

0 36.89775039 xlo xhi
0 26.67072 ylo yhi
15.829247758989695 220.92235664098627 zlo zhi
0 6.452675773110602 0 xy xz yz

Masses

1 14
2 15

Pair Coeffs # lj/cut/omp

1 0.0914 3.95
2 0.1947 3.75

Bond Coeffs # harmonic/omp

1 449.5 1.53
2 449.5 1.53
3 449.5 1.53

Angle Coeffs # harmonic/omp

1 62.0967 114
2 62.0967 114
3 62.0967 114

Dihedral Coeffs # opls/omp

1 1.411 -0.271 3.145 0
2 1.411 -0.271 3.145 0
3 1.411 -0.271 3.145 0

Atoms # molecular

1 2 1 9.166762312863032 1.9977688339008617 25.782744599331306 0 0 0
2 2 1 10.345311332911507 1.343353997608694 26.465171194097138 0 0 0
3 2 1 10.980834819506802 1.948992455249633 27.683908035548864 0 0 0
4 2 1 11.779813845939984 0.8998479724143328 28.4402126696493 0 0 0
5 2 1 12.549261589749438 1.4544052104383272 29.65370668155274 0 0 0
6 2 1 13.859795891586046 0.9010896720223168 30.23498926415241 0 0 0
7 2 1 14.057232174583694 1.4475320289575668 31.605566606369372 0 0 0
8 2 1 15.468697463160145 1.253243037523833 32.161072619287566 0 0 0
9 2 1 15.661571187457817 1.622563447799255 33.62382232569326 0 0 0
5865 39 1 2.4422850955393383 12.980973663101823 34.87787188009402 0 0 0
7685 50 1 3.0726379442404075 5.316391667339147 29.10641638622033 0 0 0
9184 60 1 1.0845943782109417 20.923428007464793 20.943322464507318 0 0 0
4562 29 1 11.322914067993326 22.842033123104823 16.221057251628505 0 0 1
2201 14 1 2.5761719062993502 23.50707190719484 16.602112359457323 0 0 0
398 57 1 15.73881075639709 6.2147802950590245 33.81803702030147 0 0 0
2285 56 1 8.935128785335992 25.609755967246265 18.387154194633712 0 0 1
821 5 1 8.570038628307772 7.47969488735322 18.4005949265179 0 0 1
3803 24 1 16.90699473601034 16.526089227577334 18.329144781642757 0 0 0
220 2 1 5.654548513343086 1.3083014816119758 20.427440001410332 0 0 0
221 2 1 6.172326764073247 2.0523218885070853 21.613905400475893 0 0 0
222 2 1 7.090799474228041 1.1498242192677186 22.470874746585736 0 0 0
223 2 1 7.827560876225478 2.0470807974234946 23.62525047569323 0 0 0
224 2 1 8.765615826392146 1.2324677310857146 24.514477819703806 0 0 0
304 6 1 10.836890101485444 3.4453956109847863 21.743574736082632 0 0 0
305 6 1 12.24798520991696 3.2282167653159615 22.205247013858568 0 0 0
306 6 1 12.339468995457839 3.3149623678689175 23.68711018294172 0 0 0
307 6 1 13.748490284921935 2.9087142685630765 24.186169752263048 0 0 0
308 6 1 13.96124720917151 3.1892025936003363 25.65124441058133 0 0 0
309 6 1 15.458821094889666 3.044481293925508 26.053479189295018 0 0 0
310 6 1 15.557203941347641 3.113588516485544 27.589228135760465 0 0 0
311 6 1 17.020195756038433 3.1285536590365948 28.052373335608067 0 0 0
312 6 1 17.130626578187755 3.6998267810410517 29.475893732370864 0 0 0
7079 47 1 1.0041266192913656 26.363017070488283 31.998343644602286 1 0 0
7299 48 1 1.6396392053898352 0.7755293800845223 26.841304522938714 0 0 0
7907 31 1 12.426403919007736 7.891625977234457 34.94386754144884 0 0 0
9278 61 1 1.7626662344272526 23.239425545588702 26.772600384086708 0 0 0
7590 48 1 1.394189364459368 3.040696008283442 20.704949538372855 0 0 0
379 6 1 7.6559626608808795 3.8446843211238786 17.732561471362494 0 0 0
380 6 1 9.043224026843108 3.4240143939113157 18.309496612837922 0 0 0
381 6 1 9.311619825322019 3.78717020706266 19.771544943952225 0 0 0
382 6 1 10.729208007992392 3.3291893682576936 20.21641247167092 0 0 0
383 57 1 4.43967642881827 5.595393984678189 18.725709537965997 0 0 0
384 57 1 4.790169316966023 6.271901037793639 20.0215633535175 0 0 0
385 57 1 5.923096702176156 5.655600165925189 20.740523331033206 0 0 0
386 57 1 6.295996018906389 6.3346999574254435 22.0723281764209 0 0 0
387 57 1 7.565857767495544 5.743469972475984 22.61814251851174 0 0 0
388 57 1 7.775868055359582 6.101131771741385 24.083391411232665 0 0 0
389 57 1 9.178503826323498 5.6949152434515184 24.543097889005246 0 0 0
390 57 1 9.5606864990153 5.995883792505983 25.9801205033771 0 0 0
391 57 1 10.877855913440841 5.452963093967879 26.50204095853536 0 0 0
392 57 1 11.23363976375234 5.863848214794818 27.85538692404304 0 0 0
393 57 1 12.378910129630356 5.221828936865394 28.56071068653737 0 0 0
394 57 1 12.558143792673023 5.661209914710084 30.030315220808045 0 0 0
9189 60 1 5.202057919162476 21.76143521413046 25.81338239423758 0 0 0
1144 9 1 18.30047036612796 12.657210944627623 31.466168121061905 0 0 0
4034 28 1 17.041823003027428 18.816392577409342 22.915828447914727 0 0 0
4483 28 1 13.665426211225183 23.630857610905238 19.276882064959686 0 0 0
820 5 1 7.627506877536381 8.528259716911977 17.748081056440398 0 0 1
2970 46 1 11.72223559587663 6.273280840196932 17.415034308873246 0 0 1
2808 18 1 15.666543647939223 2.916305768512667 15.945144988308616 0 0 1
1548 12 1 17.558141745187744 19.50730331621374 35.60746019977129 0 0 0
1465 11 1 17.4297599360794 16.351132763389284 30.677939467978995 0 0 0
1143 9 1 17.78596800862023 11.765761725410103 30.314976145744417 0 0 0
606 57 1 3.1486244581855476 6.189938645907373 18.095347722252058 0 0 0
607 6 1 16.38066775901025 7.243565095453638 28.443028357775454 0 0 0
7300 48 1 2.328830319790223 1.685857924089075 27.917466951976877 0 0 0
4408 28 1 17.09857150340312 23.65821284738093 22.960321164787864 0 0 0
2283 56 1 7.302524340550522 25.474745790637417 16.462600483775837 0 0 1
2284 56 1 7.72839860195882 26.164560438287936 17.736245237567626 0 0 1
7894 7 1 2.135177544577508 8.33896292576559 22.039838601131866 1 0 1
401 57 1 18.77436651856214 5.567787107389097 36.327066127564066 0 0 0
3416 19 1 11.66637469779043 10.103668762496996 17.67071653644599 0 0 0
5863 39 1 0.6713562646162583 12.855893141880916 33.180338331486155 1 0 0
1210 9 1 8.397919252207108 12.454317318626495 18.531713262522437 0 0 0
1376 54 1 2.085686958243886 14.052734261957236 17.042285202464964 0 0 1
396 57 1 14.088267699110638 6.045682538196013 31.95131290344483 0 0 0
5414 34 1 1.9715059294680886 7.91735629591891 33.29754761812171 1 0 0
1771 45 1 18.778477105174996 21.554137367498264 31.708239583395482 0 0 0
827 6 1 13.425911600305371 7.005352968562647 24.18833882912324 0 0 0
828 6 1 14.098595982562427 7.928677801234541 25.17213522166869 0 0 0
829 6 1 14.664902345782261 7.187148213540228 26.345331979954842 0 0 0
830 6 1 15.307732061819861 7.9260855651567 27.551426033056856 0 0 0
9495 51 1 0.5231218853495024 26.139141031408425 19.642728560142587 0 0 0
8511 60 1 3.759854198093969 15.107044124731475 30.28350750644251 0 0 0
9183 60 1 0.4458440627487524 21.668923309304873 19.753783071270853 1 0 0
11 2 1 17.254313116574007 1.4112964287943686 35.65490385902322 0 0 0
5864 39 1 1.9969024231038883 12.252148123852637 33.651449652672895 0 0 0
836 8 1 4.09692397448688 9.965867997000226 18.74957074296699 0 0 0
837 8 1 4.61840827761643 10.749067592847783 19.967497390367 0 0 0
838 8 1 5.811568283680749 10.065407132742317 20.585695055619937 0 0 0
839 8 1 6.125591937507555 10.64153121991585 21.950603621948353 0 0 0
840 8 1 7.164328364818636 9.833911817325093 22.69711845305514 0 0 0
841 8 1 7.689233983497688 10.584072827541846 23.882698117178244 0 0 0
842 8 1 8.819727438050043 9.893494622593746 24.506601011017196 0 0 0
8893 44 1 2.3808398286943135 19.648848219558356 28.15108401916836 0 0 0
3801 24 1 15.462434597307304 16.42912661001812 16.2974515194227 0 0 0
9186 60 1 2.8419360809514114 20.913495011459577 22.7826631066686 0 0 0
2585 15 1 12.064465287189533 1.3940727907673882 17.413536764348123 0 0 1
825 5 1 11.782208305239529 7.126220296425762 22.258428285888023 0 0 1
1980 45 1 6.764209593322546 20.708664335759224 16.936279748372513 0 0 0
8420 2 1 1.1147242404120858 11.964290309536182 21.16107901118635 0 0 0
4967 33 1 2.1382520983385267 3.8875337823302805 32.96362176441581 1 0 0
7605 48 1 12.77462851471326 3.6854707310239965 35.93586913739689 0 0 0
4186 24 1 16.715367603436647 21.530212933267453 16.843038136754767 0 0 0
9285 61 1 6.8719450388331875 24.012175711493263 34.20121939780002 0 0 0
1134 9 1 10.333806558502612 12.73590403711225 21.839176342494067 0 0 0
1135 9 1 11.369489439600295 11.881432147159048 22.597621945432834 0 0 0
1136 9 1 11.825381110557165 12.517890525312273 23.86874424221251 0 0 0
1137 9 1 13.046702759707781 11.837578990975691 24.45335697174336 0 0 0
1138 9 1 13.660557642422619 12.627076654541304 25.58844329306053 0 0 0
1139 9 1 14.460841277144606 11.718747159846483 26.5050944069736 0 0 0
1140 9 1 15.130000864194772 12.488828704463884 27.588958786080042 0 0 0
1141 9 1 16.068560993702008 11.617471836670045 28.489370310874566 0 0 0
1142 9 1 16.66738574351325 12.545576830193022 29.515611965891964 0 0 0
2817 9 1 18.301197372485092 5.876148490690348 25.124213382161784 0 0 0
8804 57 1 1.724443549673661 17.33904745032732 22.08877607272291 0 0 0
4721 29 1 16.610842382311176 25.96609731927761 17.016439410740617 0 0 1
9502 51 1 5.835051078278156 25.371425752140883 26.74234049726336 0 0 0
216 17 1 2.4786700304783165 1.0678816571700076 16.447192903284385 0 0 1
8131 39 1 6.377587862529884 10.28908189500395 33.03058693725021 0 0 0
8815 57 1 10.563621587730182 16.57498855531446 32.824839988774315 0 0 0
1211 9 1 8.58233918150925 12.798753903150578 19.977617181612104 0 0 0
1212 9 1 9.933622682362111 12.148999670198634 20.485030961424663 0 0 0
1213 61 1 8.459771145688052 14.138026329954176 24.98479842981254 0 0 0
1214 61 1 9.392997283117932 14.98669111286389 25.813971790128093 0 0 0
1215 61 1 9.961719964989184 14.294145147155795 27.1006317976516 0 0 0
1216 61 1 10.943300397491255 15.202217294267804 27.819833912122792 0 0 0
1217 61 1 11.6855873448439 14.307117262809061 28.869432158457926 0 0 0
1218 61 1 12.499161606871573 15.106832702760265 29.920583713789746 0 0 0
1219 61 1 13.158434642693122 14.187590680491946 30.97666248223591 0 0 0
1220 61 1 14.001765702183693 15.107867623808119 31.913967594702143 0 0 0
1221 61 1 14.588372489065145 14.392481874881822 33.06400551237161 0 0 0
1222 61 1 15.65024078614516 15.143861335838194 33.813860658934885 0 0 0
1223 61 1 16.37022145718258 14.308353091686188 34.88248548239736 0 0 0
8897 44 1 5.666358623416641 19.64996710815776 32.01291267564338 0 0 0
7684 50 1 2.320461986372345 6.155158013508786 28.070168816199804 0 0 0
846 8 1 12.010400423934312 9.863034538048716 28.515812200512574 0 0 0
9277 61 1 0.46165319559544127 23.778349088703948 26.288321721370302 0 0 0
4033 28 1 15.781220537120475 18.254117121428298 22.244868077660282 0 0 0
7308 48 1 8.820679175881462 1.8659791065599585 35.859276924606505 0 0 0
3720 22 1 12.039929638831532 14.745915404291564 17.42636316986993 0 0 0
1287 61 1 4.367484504201931 15.187122286373633 19.982872800118308 0 0 0
1288 61 1 5.045379719174502 14.40026194890839 21.102180935728885 0 0 0
1289 61 1 6.2298153188541985 15.085223429337129 21.826751885408324 0 0 0
1290 61 1 6.898626836260554 14.301540962271325 22.895770645616295 0 0 0
1291 61 1 7.973443330685422 15.01600746314229 23.775892304398084 0 0 0
1456 11 1 10.575096686250978 17.23225451929155 21.58529710539523 0 0 0
1457 11 1 11.570498755107 16.30647002759667 22.29075910029969 0 0 0
1458 11 1 12.423103944265097 17.095621987014983 23.300881680140286 0 0 0
1459 11 1 12.825590597465283 16.317191116253678 24.551244852377305 0 0 0
1460 11 1 13.684796108873284 17.104159395674547 25.593459689600937 0 0 0
1461 11 1 14.547505758091988 16.125212325927702 26.460477389313255 0 0 0
1462 11 1 15.482965865359628 16.92453264057725 27.37694646569944 0 0 0
1463 11 1 16.137141476000593 16.15315870135116 28.596664459613194 0 0 0
1464 11 1 16.75682674480107 17.185907122940606 29.559969814135435 0 0 0
1208 9 1 6.785354196673314 12.194958491162312 16.532700345742647 0 0 0
4643 22 1 18.29456058609993 25.99679802649086 19.001319749087546 0 0 0
378 6 1 7.448904107445967 3.301607660220987 16.342887513077372 0 0 0
9281 61 1 3.752982967751523 23.84791117085653 30.01895851973381 0 0 0
2811 18 1 18.103169037036388 3.7964740202005407 19.015177088431344 0 0 1
1996 14 1 17.50836650879746 24.169094904416447 35.67088755837237 0 0 0
7594 48 1 4.400911210023309 3.461730480766214 24.598954320328914 0 0 0
5866 39 1 3.6921319489026634 12.476680255166595 35.4675994473506 0 0 0
1534 11 1 9.969862281024609 16.648347299509716 20.323230664225306 0 0 0
1535 12 1 7.144671068810793 18.60096474842615 23.078451603459175 0 0 0
1536 12 1 8.325424428752024 19.378515546827046 23.690668164900295 0 0 0
1537 12 1 8.996099032841325 18.54699279146922 24.794041678303998 0 0 0
1538 12 1 9.98988943493505 19.474573687858694 25.494252988101294 0 0 0
1539 12 1 10.735900710545385 18.644028174076446 26.574158305751077 0 0 0
1540 12 1 11.463391459215108 19.691089909326706 27.522858880636498 0 0 0
1541 12 1 11.957911599856791 18.891992905193703 28.665357709254216 0 0 0
1542 12 1 13.115332855664256 19.466350771351035 29.534053612195763 0 0 0
1543 12 1 13.3827293545929 18.72586874445863 30.85967057221049 0 0 0
1544 12 1 14.480359452934255 19.418572630693777 31.644701313892092 0 0 0
1545 12 1 15.019925366295887 18.621880358457663 32.808133816555056 0 0 0
8802 57 1 0.23020673223819849 17.2121305440941 20.14557430209839 0 0 0
8509 60 1 2.160926760192442 14.93332742181161 28.20280681736682 1 0 0
1286 61 1 3.4493205137494902 14.299010173845252 19.237381949924583 0 0 0
7593 48 1 3.457971932363935 4.143831093622979 23.688177305476323 0 0 0
822 5 1 9.26327349407366 8.215304915329007 19.53151884406299 0 0 1
823 5 1 10.167674907013401 7.316840287925477 20.329250441832038 0 0 1
397 57 1 15.244626810707368 5.441609208741467 32.66798164501395 0 0 0
1754 12 1 3.1792136976880183 19.823466904220513 18.10646096797302 0 0 0
1755 12 1 4.20862516458236 19.03952477526633 18.9393294178404 0 0 0
1756 12 1 5.126263175864376 19.713485036355333 19.981922106007765 0 0 0
1757 12 1 5.688876372111007 18.713811161863312 21.0062262324543 0 0 0
1758 12 1 6.646391247259401 19.372204297666006 21.92131238248438 0 0 0
1759 45 1 9.447214325797686 21.519021992582502 19.645721117604538 0 0 0
1760 45 1 10.066943365266097 20.736491794470414 20.80812880108645 0 0 0
1761 45 1 11.156442210602437 21.630324705833218 21.508875827870465 0 0 0
1762 45 1 11.82920996280509 20.745985109297077 22.55867074017389 0 0 0
1763 45 1 12.708692213269085 21.519351111968696 23.58480178498195 0 0 0
1764 45 1 13.63359634523171 20.735905283453874 24.44663769555213 0 0 0
1765 45 1 14.324099036047475 21.566963469560374 25.520469916787807 0 0 0
1766 45 1 15.36479317295794 20.856669086426034 26.378191323471853 0 0 0
1767 45 1 15.877321638817024 21.7432968769947 27.52067270414362 0 0 0
1768 45 1 16.8560164552986 20.947973924629597 28.307408185201986 0 0 0
7683 50 1 1.6121250022158948 5.318600266716042 27.02977553210738 0 0 0
610 6 1 18.84042316749736 8.236168991284357 31.451161909426844 0 0 0
8508 60 1 1.2772978047260937 14.056797718755998 27.358232002730674 1 0 0
8126 39 1 1.7345444147610516 10.417244191494163 28.50346149653506 1 0 0
2292 14 1 18.379555251427504 25.124384017368683 29.955170469725804 0 0 0
1224 61 1 17.284120656811414 15.102950432081444 35.7143882935466 0 0 0
1981 45 1 7.97027991265971 21.38380518567084 17.508684685133574 0 0 0
1982 45 1 8.319834304912744 20.751723704789455 18.881871720155072 0 0 0
1983 14 1 7.347325544041506 23.440564435401292 22.555715907841346 0 0 0
1984 14 1 8.261021608964414 24.265664619031245 23.54679125082765 0 0 0
1985 14 1 8.933691568727912 23.524652588518315 24.701748537744567 0 0 0
1986 14 1 9.854233210336329 24.30707645925203 25.58175561313402 0 0 0
1987 14 1 10.70104819852992 23.44190713685629 26.560025208518056 0 0 0
1988 14 1 11.630019252742931 24.282753070856558 27.443406014970215 0 0 0
1989 14 1 12.383024272972069 23.431693324856987 28.42741309514158 0 0 0
1990 14 1 13.05088585176522 24.19213325172752 29.556183922666143 0 0 0
1991 14 1 13.971819456520203 23.42401692416768 30.525827182713044 0 0 0
1992 14 1 14.779246853424414 24.30666298277227 31.487520676694466 0 0 0
1993 14 1 15.509800501714377 23.39855229833801 32.43218876725052 0 0 0
1994 14 1 15.936931851881697 24.189755137604127 33.647087549312616 0 0 0
9287 61 1 8.463329911580608 24.214294322353737 36.17609809411046 0 0 0
8421 2 1 1.7226191704327491 12.784923434186606 22.26438454508976 0 0 0
7682 50 1 0.7332542111373379 6.128541755801823 26.033581281330445 0 0 0
3418 19 1 13.35108595691386 10.054868568463679 19.618380225862893 0 0 0
2586 16 1 13.30437340040149 0.7584309794600366 17.94662256112393 0 0 0
8423 2 1 3.347995028670283 12.868409119128081 24.21494066963207 0 0 0
2202 14 1 3.200055730958086 24.31671325785888 17.7174524655754 0 0 0
2203 14 1 4.1346443672440145 23.592787940863314 18.657203127525733 0 0 0
2204 14 1 4.62445569381164 24.390423878055987 19.766893076886507 0 0 0
2205 14 1 5.644595423940198 23.530283351979303 20.609798527064058 0 0 0
2206 14 1 6.28988791581535 24.316473574033346 21.752736446645386 0 0 0
2286 14 1 13.525573131572642 25.352554962589057 24.18582378948941 0 0 0
2287 14 1 14.185372490541226 26.10547333724939 25.367401668630865 0 0 0
2288 14 1 15.424097965069173 25.36487123111449 25.837313590539715 0 0 0
2289 14 1 15.680785337064226 25.96534662856369 27.1516301287188 0 0 0
2290 14 1 16.876951697209996 25.295699119163203 27.841336595725313 0 0 0
2291 14 1 17.380184763344236 25.89711762230151 29.1412062091948 0 0 0
3648 22 1 17.158710011217316 13.81515429489495 24.654403746776765 0 0 0
7082 47 1 3.760817433075884 25.713351426976804 34.80450791651682 0 0 0
8510 60 1 2.9139269612338574 14.170327113292277 29.363125164799882 0 0 0
4035 28 1 17.406971430036535 18.229153964766624 24.245837956059262 0 0 0
8516 60 1 7.806554360545292 14.537488192451336 35.052122062244635 0 0 0
4968 33 1 2.282740632675222 4.36807933644634 34.47137836515576 0 0 0
3422 20 1 17.768854863097786 12.519516737275852 18.95028786768547 0 0 0
8814 57 1 9.508292730042692 17.338388015697266 31.974707720923067 0 0 0
2361 14 1 10.029012972843214 25.440388642797785 20.611260985996118 0 0 0
2362 14 1 10.50219645163398 26.227858522121647 21.867014285099803 0 0 0
2363 14 1 11.811743856400264 25.67120969640716 22.374263849939712 0 0 0
2364 14 1 12.360167056868345 26.192202944466 23.703065120879806 0 0 0
2365 16 1 15.289967713506606 1.4835403691425637 21.192994573036874 0 0 0
2366 16 1 16.48680293890526 0.7634152488143463 21.834531773299787 0 0 0
2367 16 1 16.912069221860943 1.513683919654552 23.059501306078253 0 0 0
4720 29 1 15.627713496476128 25.193805709218346 16.132335698805186 0 0 1
6246 52 1 1.5303242483387174 16.821482853791345 33.40020006075892 1 0 0
609 6 1 17.941615726920496 7.425972940198427 30.44522639810257 0 0 0
9509 51 1 11.735958479342061 26.345662538361537 33.39616396405718 0 0 0
1753 12 1 2.3577993067770744 18.98935944537015 17.119580721497098 0 0 0
8434 2 1 11.811183687654808 12.064848376154332 35.23563721789384 0 0 0
2588 16 1 14.791934783610042 0.7279885048836162 20.011409454131083 0 0 0
7690 50 1 6.834089300729698 6.274508535361387 34.10391499832856 0 0 0
824 5 1 10.797225899170163 8.041527427484185 21.536767346738795 0 0 1
8806 57 1 3.0431386832103886 17.1374666966335 24.23725982742271 0 0 0
3421 20 1 17.156432175352947 11.7802592836439 17.794209177125932 0 0 0
2813 9 1 15.305808391100701 6.105166319176432 21.05994240627803 0 0 0
2814 9 1 16.293992019713457 5.172863109960092 21.748806848812375 0 0 0
2815 9 1 16.787918367295696 5.837147435080881 23.03327824106936 0 0 0
9279 61 1 1.8821404240017798 23.503393359423903 28.276487346588226 0 0 0
2971 19 1 17.637172244498085 7.486535914782829 17.607142691960767 0 0 0
7080 47 1 1.9435365060824306 25.63210325886893 32.90746125120724 0 0 0
8133 39 1 7.856104138916953 10.163502362306362 35.04000699389129 0 0 0
2584 15 1 11.534722048990588 0.6508815694604583 16.121975673922304 0 0 1
2890 9 1 13.463058727318167 6.214839830070034 19.190911186940788 0 0 0
2891 9 1 14.66827820809492 5.464697477332568 19.823590870470223 0 0 0
7895 7 1 2.7126853110171365 7.48949932212278 23.15453425934691 1 0 1
4032 28 1 15.298565725906666 19.150806135925723 21.19014220230707 0 0 0
7692 50 1 8.434998024002745 6.101462691284492 36.021920072888 0 0 0
8507 60 1 0.5763714415723172 14.742848558509106 26.191104507401093 1 0 0
3195 19 1 14.83148103768644 9.834168536142569 20.059763224700657 0 0 0
3196 19 1 15.120170191502172 10.32219574171399 21.464689392883432 0 0 0
3197 19 1 16.23537233640087 9.703702734279526 22.293336123641037 0 0 0
3198 19 1 16.421256642355175 10.255938919291726 23.61664414455796 0 0 0
6249 52 1 4.017866158402917 17.843608836180916 36.224428978711984 0 0 0
8803 57 1 1.0292297587096746 16.37969522944041 21.12750792754875 0 0 0
4966 33 1 0.7746282019913384 4.160032352838244 32.35097194968655 1 0 0
8422 2 1 2.616328471072177 12.04036106200141 23.129253706405894 0 0 0
8892 44 1 1.458350173319837 18.898302040558605 27.218384862476682 0 0 0
8895 44 1 3.9347259292542134 19.586806353545303 30.120523322000768 0 0 0
8813 57 1 9.256075182142721 16.681488058905998 30.613465419875794 0 0 0
400 57 1 17.43273168809429 6.070540958843788 35.818036563647965 0 0 0
7303 48 1 5.040779419009095 0.9021165253216199 30.630382027553917 0 0 0
9507 51 1 9.985562355673837 26.24395734564174 31.50493092452008 0 0 0
3643 22 1 13.562644399817925 14.58226365941022 19.447253651031414 0 0 0
3644 22 1 14.640948330606482 13.794182698587806 20.233843186003536 0 0 0
3645 22 1 15.237012528010304 14.57193626518964 21.436079322988533 0 0 0
3646 22 1 15.869398283243859 13.678736690354249 22.584636679198944 0 0 0
3647 22 1 16.557477666200498 14.623517950895062 23.539629138317817 0 0 0
819 5 1 6.789896965909821 7.6812130242784376 16.793141777000038 0 0 1
847 8 1 12.37390485804686 10.562260095398681 29.845091935630816 0 0 0
1546 12 1 15.941322329480595 19.447178599924705 33.72389482439277 0 0 0
9286 61 1 7.935497207756939 23.336687150003925 35.074519884794356 0 0 0
3721 22 1 12.846344731960656 13.754307839307856 18.336573584392674 0 0 0
2889 9 1 12.76698447749665 5.448765489334949 18.134288415251397 0 0 0
8807 57 1 4.203757368592366 16.444048350665234 24.93205782164135 0 0 0
3417 19 1 13.118419025512551 9.891463553767927 18.124172276559047 0 0 0
7896 31 1 3.378748974541398 8.331554567442884 24.205298101927326 1 0 0
1995 14 1 16.789610914355 23.375024756045278 34.56286791708257 0 0 0
2816 9 1 17.892069318959564 5.137213943341504 23.862932168412286 0 0 0
4722 29 1 17.287557247181706 25.188004359717635 18.155583773075808 0 0 1
4028 28 1 12.292952842114838 19.289773650732233 17.146593357207735 0 0 0
4029 28 1 12.683337142595223 18.727079354114302 18.516807892563133 0 0 0
4030 28 1 13.862674261302718 19.396317132488335 19.175602226259095 0 0 0
4031 28 1 14.104436347251246 18.663807880081965 20.499197041710577 0 0 0
6629 55 1 0.9950733127341467 22.166180099763476 32.199836116193 1 0 0
8894 44 1 2.9323734026767445 18.782342525693608 29.233585907295286 0 0 0
4185 24 1 15.567704287546002 20.821154298411546 16.071565167711544 0 0 0
9282 61 1 4.9733423941994985 23.237987528340692 30.724779307740135 0 0 0
6633 55 1 4.365785101542719 22.260345179038598 36.14734290776735 0 0 0
7592 48 1 3.0312718499454547 3.239998520458206 22.620338699409782 0 0 0
8127 39 1 3.0793156832736774 9.980280878613769 29.143642796832186 1 0 0
4407 28 1 16.119408368677355 22.888536612055344 22.14280317349331 0 0 0
608 6 1 16.909271808208317 8.11871133663712 29.574805293413547 0 0 0
4409 28 1 17.9687268873912 22.680921782200027 23.831705863040415 0 0 0
8128 39 1 3.4061817287963105 10.69867211331983 30.511972046534183 0 0 0
4187 24 1 17.151854878933147 20.66232769536565 17.968358552451974 0 0 0
8817 57 1 12.181767646524904 16.40406263757975 34.87618105590545 0 0 0
843 8 1 9.37078775226895 10.51551333128564 25.780686402818592 0 0 0
7899 31 1 6.167233226830139 7.689503106853271 26.942417437450793 1 0 0
4484 28 1 14.466244889289145 22.8194540956493 20.275966306459654 0 0 0
4485 28 1 15.356263175157865 23.716738983998933 21.14203561396865 0 0 0
9280 61 1 3.2935047874770156 23.164058632329816 28.757293906767813 0 0 0
835 8 1 2.8073891653340697 10.409250371474972 18.194645756325365 0 0 0
7908 31 1 12.69201666650792 8.428263180209951 36.31131773742489 0 0 0
7898 31 1 5.320696089953214 8.567879582452814 26.003558591997866 1 0 0
8125 39 1 1.599147534022818 9.993783743048095 27.03825076971839 1 0 0
9195 60 1 10.15119558603761 21.84273916224241 31.479119552103526 0 0 0
8898 44 1 6.310166804666677 18.902864965074148 33.154990974686996 0 0 0
9194 60 1 8.813985759593693 21.36345894679435 30.88140539569713 0 0 0
2369 16 1 18.610596328437296 1.3264908757859264 25.08186503695569 0 0 0
2969 46 1 11.279067984913262 5.538637788427323 16.139422250327122 0 0 1
2810 18 1 17.451044483814652 2.9738278186982523 17.863509461602114 0 0 1
7691 50 1 7.787957397686 5.4249312141393276 34.88358562646693 0 0 0
9283 61 1 5.348181013098655 23.967643806704917 32.06766420762964 0 0 0
9501 51 1 5.220185279896175 26.247219715268688 25.65400940933182 0 0 0
8816 57 1 11.050250333778807 17.1544108806501 34.166802420704414 0 0 0
1769 45 1 17.230183232642762 21.557715124403295 29.68343746480047 0 0 0
8818 57 1 12.86512911451082 17.38537055344375 35.82673299858328 0 0 0
8132 39 1 6.74857724213672 10.967550761488997 34.37490250261973 0 0 0
9498 51 1 2.7758799019837017 25.28933055753229 22.672616343135964 0 0 0
845 8 1 10.692351810762503 10.31578379747681 27.93105926202767 0 0 0
9188 60 1 4.097497848372402 21.087932078818326 24.953658597665587 0 0 0
7687 50 1 4.790326810177297 5.393075076740516 30.888671688970373 0 0 0
314 6 1 18.577000250843454 3.6333476508385756 31.57240480138625 0 0 0
9199 60 1 13.447486249798184 21.682008947979952 35.34592135898728 0 0 0
9198 60 1 12.188947473926968 21.23141157244002 34.68033369913445 0 0 0
850 8 1 15.242865934976384 9.802969986562033 32.54257542123286 0 0 0
5415 34 1 2.3616581835154307 8.623820230339092 34.57318217786978 1 0 0
1533 11 1 8.981774801766361 17.413546759159544 19.463955966251746 0 0 0
8129 39 1 4.783170156157725 10.189515885566369 31.032171045541737 0 0 0
9192 60 1 7.432169698343072 20.979891084690262 28.838231093477855 0 0 0
2360 14 1 9.192972013279809 26.377594902201544 19.680311745834754 0 0 0
8812 57 1 8.248751816841919 17.49896280082979 29.784186010651233 0 0 0
4564 29 1 12.97656650010246 22.86322639568839 18.110807012934735 0 0 1
8811 57 1 7.666083337327386 16.74897239548736 28.629812741725914 0 0 0
9190 60 1 5.572397037626316 21.108060457010737 27.088107077352667 0 0 0
9193 60 1 8.65365313915025 21.730331224697146 29.445094683926257 0 0 0
826 6 1 12.259968562703236 7.774546847237923 23.566634575004635 0 0 0
849 8 1 13.907772400365124 10.348838440354077 32.04204773225911 0 0 0
8899 44 1 7.260210510893559 19.704470173795556 34.010553970166214 0 0 0
3199 19 1 17.6738429910466 9.737067903280824 24.324210269664285 0 0 0
7304 48 1 5.5455514719267365 1.7196021264090988 31.796553125077903 0 0 0
7305 48 1 6.685174885029737 1.2064691678174186 32.64273540145952 0 0 0
7306 48 1 7.404911997158807 2.120527287157658 33.6753564001108 0 0 0
7307 48 1 8.352199388571265 1.2686066191874374 34.55080880413533 0 0 0
7604 48 1 12.513287806804268 3.309673060940925 34.45082424419919 0 0 0
848 8 1 13.54552921519856 9.904365895577811 30.5838730265341 0 0 0
10 2 1 17.00578525812265 1.068528203968086 34.237702905146094 0 0 0
9504 51 1 7.535770157142757 25.283254042354724 28.72818385204871 0 0 0
834 8 1 2.465285354015306 9.636903954267476 16.916875036823427 0 0 0
9187 60 1 3.709916089507285 21.723454712470787 23.643121277019294 0 0 0
7686 50 1 3.839215456881762 6.1916927117340546 30.00614157275272 0 0 0
852 8 1 16.833104508996833 9.902634539879626 34.59947955341348 0 0 0
7595 48 1 5.101762652021528 4.124821639058688 25.720420577827497 0 0 0
7596 48 1 5.805249481211085 3.169169118099466 26.673490881463998 0 0 0
7597 48 1 6.67019520071312 3.9157072545823075 27.697419247880013 0 0 0
7598 48 1 7.446321091246229 3.140426527996193 28.837168813768702 0 0 0
7599 48 1 8.461875015285422 3.951353371440358 29.58681785213282 0 0 0
7600 48 1 9.35156785918199 3.1916211370489447 30.559164501024206 0 0 0
7601 48 1 9.915541552163518 3.9270042135121677 31.71326425390159 0 0 0
7602 48 1 10.908057272341265 3.1509276406163336 32.546242415411896 0 0 0
7603 48 1 11.188081000485045 3.8251444980524663 33.873262345570815 0 0 0
4969 33 1 3.5466817544841502 3.825415586086839 35.16218620154067 0 0 0
8514 60 1 6.062853459119968 14.402971662336329 33.27777861352743 0 0 0
8901 44 1 8.781402465815464 19.655420211113885 36.094545423555246 0 0 0
8515 60 1 6.787545818399244 15.33562107428337 34.28324545984455 0 0 0
9506 51 1 8.890563586319505 25.38560121289087 30.848913892085974 0 0 0
9197 60 1 11.794269037737415 22.015913334505974 33.43338381362268 0 0 0
844 8 1 10.467355250666312 9.779230684774802 26.493247900208125 0 0 0
1530 11 1 6.462444935603734 16.48722513565762 16.85631241941572 0 0 0
7301 48 1 3.408299009541012 0.8834125352345726 28.64878480952178 0 0 0
9284 61 1 6.590084656128918 23.346157786225334 32.86509089708851 0 0 0
1209 9 1 6.974470126643634 12.728948948280076 17.991629323783805 0 0 0
1285 61 1 2.800742781897328 14.953674877948965 18.044109563978182 0 0 0
8130 39 1 5.093494050746789 10.843610878262664 32.34593674447801 0 0 0
7688 50 1 5.218325462648632 6.141805009842463 32.16795145743953 0 0 0
7689 50 1 6.276082150089275 5.411964560030521 33.0154988677929 0 0 0
8435 2 1 12.778412614135377 12.941565627670144 36.09250278614566 0 0 0
9191 60 1 7.066047792252485 21.48041451163993 27.461541422877268 0 0 0
1532 11 1 8.582546414952754 16.71547601505683 18.196145517498856 0 0 0
1531 11 1 7.485859120539097 17.438056601647176 17.413411282575726 0 0 0
7900 31 1 6.882844602697881 8.478217545057039 27.984189068992393 0 0 0
7902 31 1 8.104287031964313 8.25286784164794 30.225131949754818 0 0 0
7903 31 1 8.96465170393784 7.411245317240727 31.105766022444673 0 0 0
7904 31 1 9.426285904486932 8.215501696633774 32.301166436182086 0 0 0
7905 31 1 10.592132643341728 7.572373851162606 33.12153035772634 0 0 0
7906 31 1 11.113734261251638 8.471685740222203 34.31533187672862 0 0 0
3194 19 1 16.362292590430346 8.059907040794172 16.999358438112058 0 0 0