LAMMPS data file via write_data, version 23 Jun 2022, timestep = 1000000

9706 atoms
2 atom types
9690 bonds
3 bond types
9674 angles
3 angle types
9658 dihedrals
3 dihedral types

0 36.89775039 xlo xhi
0 26.67072 ylo yhi
0 236.7516044 zlo zhi
0 7.448720975 0 xy xz yz

Masses

1 14
2 15

Pair Coeffs # lj/cut/omp

1 0.0914 3.95
2 0.1947 3.75

Bond Coeffs # harmonic/omp

1 449.5 1.53
2 449.5 1.53
3 449.5 1.53

Angle Coeffs # harmonic/omp

1 62.0967 114
2 62.0967 114
3 62.0967 114

Dihedral Coeffs # opls/omp

1 1.411 -0.271 3.145 0
2 1.411 -0.271 3.145 0
3 1.411 -0.271 3.145 0

Atoms # molecular

1 3 1 7.519680818085469 0.7027799344487632 10.217701676810261 0 0 0
2 3 1 8.581240669935275 1.1773956434348984 11.195094921822541 0 0 0
3 3 1 8.882029249390328 0.3031424829156526 12.362468958277011 0 0 0
4 3 1 9.92072482811871 0.8730731765525892 13.37132926678364 0 0 0
5 3 1 9.939731397209966 0.10526569144434605 14.684336344649056 0 0 0
6 3 1 10.750210175546966 0.7932054026071541 15.775288278110054 0 0 0
7 3 1 10.948159945841242 26.5778031601427 17.015086680863753 0 -1 0
8 3 1 11.495834089053773 0.6761994683821239 18.248834445423906 0 0 0
9 3 1 11.982234300921593 26.498814574811128 19.376846539006863 0 -1 0
10 3 1 12.73107612796776 0.6703615883345001 20.415857117952292 0 0 0
2260 14 1 2.5864331411850108 22.538518032229817 0.3065078811936614 0 0 0
9256 61 1 1.492729971067687 20.764705206708527 7.6870207230212 0 0 0
689 55 1 18.30126340255159 6.674747580243837 20.790430409995427 0 0 0
2500 49 1 16.78390445849865 0.45828632088677584 9.642565356358812 0 0 0
7867 52 1 2.8898359866042935 5.086322182138154 17.277777156412327 0 0 0
1724 21 1 9.658080922911429 16.48724230906 4.178972896017443 0 0 0
5091 35 1 1.9301608964744514 3.28659874723697 23.24055741614232 1 0 0
1660 21 1 18.114510865619405 15.16716793111264 21.221239434634125 0 0 0
220 3 1 4.852182697616303 1.4795061325382657 4.494883874419997 0 0 0
221 3 1 4.802724249595388 1.0892281287060452 5.964298765599381 0 0 0
222 3 1 6.027638265391993 1.551612619586989 6.747997103172698 0 0 0
223 3 1 6.1405542998646725 1.0746701776367138 8.191951717275973 0 0 0
224 3 1 7.304031914143968 1.6997073559573084 9.050541368901182 0 0 0
225 29 1 10.94653275425651 2.8099370721170307 7.266073991134256 0 0 0
226 29 1 11.118676940464894 2.0764798308486765 8.584020106724788 0 0 0
227 29 1 12.308659861764555 2.558530215438332 9.471497717124283 0 0 0
228 29 1 12.478750152272179 1.8908387487680844 10.851880162459727 0 0 0
229 29 1 13.431045670673885 2.62748954544862 11.824880039424245 0 0 0
230 29 1 13.324312510958215 2.188578426660028 13.280805089050958 0 0 0
231 29 1 14.57349215703007 2.5100639514766123 14.155593856234704 0 0 0
232 29 1 14.448108448889984 2.0123630702321003 15.566907073147053 0 0 0
233 29 1 15.728329690437269 2.1374477033703267 16.350800137255927 0 0 0
234 29 1 15.601976833442746 2.097033669311403 17.94478351063445 0 0 0
235 29 1 17.008738596292748 2.3393467499216087 18.578629739576197 0 0 0
1135 19 1 18.600319677485377 11.391235533281725 20.19864356585025 0 0 0
4375 28 1 16.18241665077804 20.85931508489053 1.148292667842507 0 0 0
1976 41 1 15.800437636375431 20.399722593914746 15.735495486397284 0 0 0
445 29 1 8.399700537415686 2.9436407731065852 2.807861078220948 0 0 0
446 29 1 8.385683525858614 2.4360627395854317 4.251687274487223 0 0 0
447 29 1 9.514514606238759 2.962154601064582 5.1205288721421605 0 0 0
448 29 1 9.647921636350725 2.3823635231202425 6.545388870524344 0 0 0
449 51 1 4.850935167872447 5.035759758972808 5.833797517131884 0 0 0
450 51 1 6.127615745241086 5.467339053210503 6.558321947872175 0 0 0
451 51 1 6.115280439767846 5.436972399447552 8.119735763590729 0 0 0
452 51 1 7.457681531222634 5.245660375047839 8.814422374542747 0 0 0
453 51 1 7.495874113265416 5.344692482755116 10.362707900367461 0 0 0
454 51 1 8.867375146023257 5.4480861859671394 11.00650955561906 0 0 0
455 51 1 8.69061295668426 5.097591672073911 12.499671300770656 0 0 0
456 51 1 9.92169027501134 5.087760226611538 13.343021675351318 0 0 0
457 51 1 9.827758810158409 5.016679157574968 14.858123405577047 0 0 0
458 51 1 11.199442877334263 4.80835042975317 15.515814073487928 0 0 0
459 51 1 11.205892536433455 4.598798582585583 16.997901009457156 0 0 0
460 51 1 12.530349590625212 4.931587214560633 17.70351111388463 0 0 0
461 51 1 12.396356424818933 4.646041927149945 19.1815802340515 0 0 0
3924 28 1 14.83026103154935 13.604737310277473 4.732069647012835 0 0 0
2284 15 1 18.096600662223572 24.609781317797566 22.257072337783484 0 0 0
9641 64 1 5.2720134219847266 25.122434231859593 12.989885704928389 0 0 0
9026 59 1 1.6736054073156614 18.66799770252053 16.555770112258706 0 0 0
9351 63 1 4.917070822450571 22.361773046963453 23.449928642196035 0 0 0
1134 19 1 17.314658361686277 11.243440338979346 19.37552959055358 0 0 0
669 51 1 2.68538381392463 5.057071184732498 1.2016540050931135 0 0 0
670 51 1 3.9523433330305107 4.83594111179315 2.0519998637891845 0 0 0
671 51 1 3.7364079432063986 5.085742777936104 3.5108370209108144 0 0 0
672 51 1 5.013093460437129 5.164808981553849 4.3513598653719585 0 0 0
673 55 1 9.172752531270202 7.165591732280431 2.39771577347231 0 0 0
674 55 1 8.97722335776012 7.0410857218849685 3.901337643989069 0 0 0
675 55 1 10.240480744987646 6.966587269265364 4.745521713432454 0 0 0
676 55 1 9.98661352701259 7.099256547066046 6.223141089454449 0 0 0
677 55 1 11.24636521551203 6.944098388115805 7.01278182242806 0 0 0
678 55 1 11.083191795071214 7.277944017023626 8.532134890049274 0 0 0
679 55 1 12.345185913574223 7.211060264861229 9.436611819192727 0 0 0
680 55 1 12.166361281696663 7.2070809676215415 10.953437817920788 0 0 0
681 55 1 13.495424987537719 7.071628946772852 11.714165192673066 0 0 0
682 55 1 13.486521583590271 7.323578817527524 13.226760146235474 0 0 0
683 55 1 14.834074978903658 7.071050377986524 13.82148298344094 0 0 0
217 2 1 2.505867024602671 0.44399587654358985 1.4230856760068264 0 0 1
3262 48 1 15.75328478096243 9.824976937217384 7.1059708737838605 0 0 0
3701 36 1 17.329587329022193 12.253186175761083 0.6003595564357019 0 0 1
4150 4 1 17.086306798538015 15.80956886829406 2.164939717978079 0 0 0
4692 20 1 17.976651908874405 25.376583250090206 4.812411868482708 0 0 0
2503 49 1 18.046522604196518 0.27953106123748245 13.379088887778071 0 0 0
896 55 1 7.920541914614751 7.088798374676935 1.4649632865367188 0 0 0
897 5 1 5.467802614067717 9.365425963713074 4.4529595606482495 0 0 0
898 5 1 5.315807277873421 9.589707860646069 5.922560690435882 0 0 0
899 5 1 6.571753843329742 9.455843287949946 6.7859919054653295 0 0 0
900 5 1 6.353447104048062 9.53920800936861 8.286379015946999 0 0 0
901 5 1 7.643547613052117 9.526569680007032 9.146930582966423 0 0 0
902 5 1 7.419621191141902 9.511922037800417 10.693315071725474 0 0 0
903 5 1 8.700232300831557 9.585991055799624 11.490091800374492 0 0 0
904 5 1 8.570033751495622 9.422489057175838 12.995142365613873 0 0 0
905 5 1 9.95860325908098 9.474703243883534 13.662453775172839 0 0 0
906 5 1 9.946028442228048 9.343486407272335 15.14981280186769 0 0 0
907 5 1 11.290869726297245 9.509596350816127 15.878767383863416 0 0 0
908 5 1 11.162836599403752 9.08131240865654 17.368296900944124 0 0 0
909 5 1 12.41246647520635 9.20278551462321 18.203557615779275 0 0 0
910 5 1 12.265490112314335 8.845244849830554 19.735689870420394 0 0 0
9343 63 1 0.5688639909252541 22.812465124251826 14.09488177011183 0 0 0
7639 51 1 2.797575492037981 2.96153716716904 10.568307345703422 0 0 0
8414 58 1 2.0813348139973598 12.13699985819017 7.180617873261492 0 0 0
3256 48 1 12.231265096702206 9.771167513486002 0.26417948113097556 0 0 0
4149 39 1 17.1067047308125 16.407897376670466 0.7771761704702494 0 0 1
8018 54 1 0.3209434809867823 7.211236197583983 4.485660004673808 1 0 0
1118 5 1 3.1070639452932087 9.21331922518169 1.2916639967052317 0 0 0
1119 5 1 4.405093111528741 9.301061549021961 2.071543607177934 0 0 0
1120 5 1 4.190618659267208 9.486892261565954 3.6226453996002794 0 0 0
1121 19 1 10.176082889157168 11.563454563509302 4.577337493487148 0 0 0
1122 19 1 10.121374492859875 11.243196807841246 6.12507632853429 0 0 0
1123 19 1 11.361272761826779 11.67607695019107 6.823206751312821 0 0 0
1124 19 1 11.353742613954921 11.17700867316984 8.252324692178423 0 0 0
1125 19 1 12.51970182637478 11.763790376881426 9.040630857380728 0 0 0
1126 19 1 12.631320263073059 11.212787278980597 10.460581807450822 0 0 0
1127 19 1 13.864618869898766 11.543041325767117 11.304884173650992 0 0 0
1128 19 1 13.63041315529913 11.25291633792144 12.775826462667341 0 0 0
1129 19 1 14.947703671981753 11.43773731619519 13.57966247420359 0 0 0
1130 19 1 14.80062782514434 11.155231281886802 15.044400206163017 0 0 0
1131 19 1 16.06928839660218 11.613137059302831 15.714818309596602 0 0 0
1132 19 1 16.178698175641745 11.209696212715835 17.191833676609676 0 0 0
2280 15 1 15.936444351410726 25.01331736222135 17.641163628116427 0 0 0
1739 11 1 14.913077144535892 18.538843859552625 23.509737615215634 0 0 0
4542 29 1 18.421869390682325 22.79797278475261 12.466013021511264 0 0 0
1342 19 1 7.9249354303166335 10.94991956890917 1.4648116230945638 0 0 0
1343 19 1 9.214086453840233 11.337667709650765 2.2218612968586378 0 0 0
1344 19 1 9.036316192335919 11.087933795668697 3.7351240000112975 0 0 0
1345 10 1 5.614094120812471 13.512648408534696 4.0409141573646385 0 0 0
1346 10 1 5.705253786516806 14.119273529529286 5.435609733659745 0 0 0
1347 10 1 6.825684450443347 13.694355942074667 6.328878375447574 0 0 0
1348 10 1 6.691595451533896 13.834957272984989 7.8592265786892055 0 0 0
1349 10 1 7.87443093991117 13.35963537997597 8.749090506120341 0 0 0
1350 10 1 7.7099224648077325 13.729429580325139 10.17942657335332 0 0 0
1351 10 1 8.957119221925838 13.333097971717404 11.019669054432002 0 0 0
1352 10 1 8.650813136599895 13.712505501527117 12.481883008735009 0 0 0
1353 10 1 9.761384708842382 13.29025079464788 13.413040116302055 0 0 0
1354 10 1 9.568836947502552 13.522010547602813 14.926633279359866 0 0 0
1355 10 1 10.829954814544491 13.146123949130658 15.71962814986152 0 0 0
1356 10 1 10.885187304459272 13.739968030920458 17.117703319765056 0 0 0
1357 10 1 12.221054497581761 13.520823039105911 17.9116885061535 0 0 0
2282 15 1 16.94875337147411 24.83131667693236 20.00903544061262 0 0 0
4543 29 1 18.20238177075012 22.3990270853261 13.939516033979938 0 0 0
1884 1 1 2.779517707641092 18.93185046151079 1.1221663722176014 0 0 1
4769 20 1 16.841165633282642 25.134210656876267 2.5346903899272224 0 0 0
4371 26 1 12.248464204763634 18.406487858816483 1.9009681710049526 0 0 1
2793 18 1 16.60489228848601 2.7848589667686126 2.6676983632182827 0 0 0
4611 29 1 12.128659312487523 22.542879059447674 1.355622320382224 0 0 0
4691 20 1 18.049189496682594 24.97422538032343 3.330025160487927 0 0 0
1567 10 1 4.280297624778395 13.558853015855512 1.7617315998537697 0 0 0
1568 10 1 4.657085633169819 14.22753794836738 3.040324624141737 0 0 0
1648 21 1 11.564611473584852 15.595561490688512 7.485653426421049 0 0 0
1649 21 1 12.287247943561892 16.43566563955059 8.510042863932798 0 0 0
1650 21 1 12.813589167953602 15.534683433031205 9.632290821340765 0 0 0
1651 21 1 13.386461271531187 16.228455174066205 10.844917662007278 0 0 0
1652 21 1 14.149695023081195 15.310932281947604 11.86142949995852 0 0 0
1653 21 1 14.531931907414847 16.048185444898536 13.113819464741958 0 0 0
1654 21 1 14.889700654997839 15.244891387171876 14.352118394473038 0 0 0
1655 21 1 15.393396711995967 16.121260680891588 15.537245886080346 0 0 0
1656 21 1 15.897834384341376 15.34037653486244 16.765878830127555 0 0 0
464 51 1 14.845948434529184 4.684590219970111 22.271857433681927 0 0 0
9347 63 1 2.701638607846696 22.57478299028531 18.765314368224736 0 0 0
4156 27 1 18.049678953620106 18.776480727108066 11.85264655726062 0 0 0
2499 49 1 15.414935388535332 0.27805886774023175 9.05041784786953 0 0 0
8639 57 1 1.298440993966409 14.477054094791326 14.430849299513422 0 0 0
2056 14 1 14.660209674211885 22.499984343783414 22.49442345251645 0 0 0
9637 64 1 2.712130108371663 25.695306565255617 8.640009034981189 0 0 0
1725 21 1 10.170735150324898 15.569280329998504 5.307763112238413 0 0 0
1726 21 1 10.60268475453135 16.39655772570245 6.518379385065107 0 0 0
1727 11 1 7.494996511770689 18.55608480059965 10.05955216118989 0 0 0
1728 11 1 8.243063279998808 17.60355430138984 10.963669210511942 0 0 0
1729 11 1 8.689916615365242 18.364268005929745 12.156807104976258 0 0 0
1730 11 1 9.453435351416191 17.543959250571394 13.210361906276804 0 0 0
1731 11 1 9.844666062628093 18.268776498713656 14.489712662209941 0 0 0
1732 11 1 10.986945233786342 17.603555215334595 15.262344125764557 0 0 0
1733 11 1 11.339375454992624 18.41144721682022 16.50436771156865 0 0 0
1734 11 1 12.18175773348613 17.639085341390444 17.54414912103021 0 0 0
1735 11 1 12.436502687905875 18.42963815895741 18.831508440408797 0 0 0
1736 11 1 13.505028946129203 17.784281990786294 19.76246219728492 0 0 0
1737 11 1 13.595816865654866 18.507454165296636 21.105319545561017 0 0 0
1738 11 1 14.76913200613157 18.071622514249572 22.024490429749278 0 0 0
7420 63 1 1.7774060753672842 0.8425297528296779 16.48638764720343 0 0 0
7635 51 1 0.3299437528974929 2.953924772754681 6.182025548500192 1 0 0
8246 55 1 1.647869395612748 9.564552959958464 17.092379815383598 0 0 0
9644 64 1 6.351000687001885 24.471407811742026 16.733652703190703 0 0 0
8247 55 1 2.946901059226529 9.32208299925955 17.916603597230875 0 0 0
1800 11 1 3.723818802354268 18.594301909097737 3.4668446302303315 0 0 0
1801 11 1 4.780745813259619 17.8664604616654 4.34130252614345 0 0 0
1802 11 1 5.00657593574787 18.513053792852233 5.668677657921475 0 0 0
1803 11 1 6.232318665291628 17.965861044880022 6.450658109907694 0 0 0
1804 11 1 6.479069603882956 18.673865881450038 7.805383429417263 0 0 0
1805 11 1 6.95329821445204 17.696263824145593 8.86355321294046 0 0 0
1964 41 1 8.538655311803065 21.040748493488884 2.5801740785344824 0 0 0
1965 41 1 8.268038463246672 20.73682118636055 4.003922670011701 0 0 0
1966 41 1 9.615502624462174 20.618747067878804 4.715878148710041 0 0 0
1967 41 1 9.475058908320825 20.264220691789333 6.182820524296616 0 0 0
1968 41 1 10.747267301531021 20.46725552663607 7.053020748013894 0 0 0
1969 41 1 10.754160886184016 19.87672971512165 8.492346451231683 0 0 0
1970 41 1 12.08461218857096 20.157669551308867 9.14887047101283 0 0 0
1971 41 1 12.027080921066508 19.716384534129116 10.602432109710355 0 0 0
1972 41 1 13.087451208399106 20.364981513464546 11.456669626384752 0 0 0
1973 41 1 13.185227825250726 20.025877325855113 12.927650248800468 0 0 0
1974 41 1 14.384795087559242 20.655985454458847 13.592392722172976 0 0 0
4541 29 1 17.15119360236376 22.729404224871004 11.65508543540989 0 0 0
3092 33 1 12.396375693474074 4.44813176896434 2.05845344487424 0 0 1
7418 63 1 0.5015514297463806 0.8738409168778664 14.225288810140697 1 0 0
1723 21 1 9.237280068133806 15.75329296742263 2.9496186860615623 0 0 0
1136 19 1 18.51895805475271 11.048079706040442 21.68487485062611 0 0 0
9649 64 1 9.796200193672053 24.810127877590464 22.168250765871253 0 0 0
2042 41 1 7.228054896423068 20.874455087113734 1.8237231935227451 0 0 0
2043 14 1 6.314617958793996 23.22282640790035 8.31110320078512 0 0 0
2044 14 1 7.322905447225027 22.42910163905932 9.125761318302596 0 0 0
2045 14 1 7.371407886280788 22.755619412242563 10.583959190873061 0 0 0
2046 14 1 8.558874959109657 22.162785409961195 11.303044676402282 0 0 0
2047 14 1 8.877073970369713 22.97609607981056 12.547749885966438 0 0 0
2048 14 1 10.01471678196842 22.48644660848514 13.37215701923426 0 0 0
2049 14 1 10.061201928796885 23.041884089106613 14.756752196233613 0 0 0
2050 14 1 11.151212541000852 22.524121650055932 15.716749126651989 0 0 0
2051 14 1 11.016443939916106 22.770460052581466 17.20166405819782 0 0 0
2052 14 1 12.184091435607694 22.1127288603065 18.04889037224591 0 0 0
2053 14 1 12.192354074484006 22.67434628222264 19.48435387454474 0 0 0
688 55 1 17.06140362870209 6.931249891927495 19.941182382597102 0 0 0
3093 33 1 13.295925537027863 5.202284960583896 3.0049415524445466 0 0 1
444 29 1 7.2897179463378565 2.447460850200292 1.8999858532738831 0 0 0
2489 15 1 7.535838677185592 25.011489453492572 0.44636237567495257 0 0 0
9640 64 1 4.116792418943703 24.679850877257376 12.125086848225605 0 0 0
236 29 1 16.921697766389887 2.307786955327276 20.08195767362035 0 0 0
7419 63 1 1.3219165413139549 0.08823988156935555 15.29640468079376 0 0 0
2262 14 1 3.528375312060858 22.701339246850093 2.6445033122124784 0 0 0
2263 14 1 3.7227460758798796 23.416161374689512 3.9942154454246754 0 0 0
2264 14 1 4.710857771352404 22.64283439436037 4.790358771246151 0 0 0
2265 14 1 4.8206159178949095 22.968887289700405 6.251573579474521 0 0 0
2266 14 1 6.230200783436477 22.630742914313988 6.898530678163279 0 0 0
2267 15 1 8.539416853268317 24.82866742929749 2.7976150174671406 0 0 0
2268 15 1 8.33352494686436 25.013007916646952 4.277610781284591 0 0 0
2269 15 1 9.556705471839766 25.23945757751142 5.1462455178336155 0 0 0
2270 15 1 9.615107955747037 24.714548604170176 6.576639427353652 0 0 0
2271 15 1 10.870200300875128 24.97927092777788 7.400050953981668 0 0 0
2272 15 1 10.783398350503804 24.291044658050957 8.749674659105551 0 0 0
2273 15 1 12.106225724333223 24.62445831391692 9.555594091422472 0 0 0
2274 15 1 12.145405869181785 24.338677046480324 11.029024249999376 0 0 0
2275 15 1 13.465533547385597 24.61610846998143 11.716705546566788 0 0 0
2276 15 1 13.394552225268896 24.679659166581775 13.240239226390367 0 0 0
2277 15 1 14.77344378617433 24.67421720733992 13.895834608464268 0 0 0
9638 64 1 3.059695501284078 24.749061377365557 9.815788714960256 0 0 0
2872 19 1 16.932782546677775 2.7487701275538168 1.192188997976436 0 0 1
912 5 1 13.539613730340465 8.852094220406517 21.966165160858086 0 0 0
7421 63 1 2.344788864534987 26.654567159540903 17.538168201362417 0 -1 0
3264 48 1 17.057187916354515 9.586111090892434 9.299155531886639 0 0 0
1647 45 1 7.559251610522928 16.108337598260405 0.9882488876471868 0 0 1
9648 64 1 8.455757530469594 24.78212471676125 21.38985243429251 0 0 0
8640 57 1 2.303794153511397 13.727862117765186 15.352003289906408 0 0 0
4157 27 1 17.882157643772587 18.30886656150553 13.319862394070556 0 0 0
2493 49 1 11.710904898184584 0.18630284202030337 2.3074039843984746 0 0 0
2494 49 1 13.072739404372298 0.20191213928941343 3.023497178872791 0 0 0
2495 49 1 13.026660717505871 26.40598779187944 4.527828894510846 0 -1 0
2496 49 1 14.265187542686387 0.12409585822465066 5.332048254593889 0 0 0
2497 49 1 14.181362973032686 0.16472278437637647 6.869768691904093 0 0 0
3479 44 1 18.397527674881342 11.88256869044155 2.8774417024627206 0 0 0
8245 55 1 1.8328942374484596 9.744130766757017 15.618213264136754 0 0 0
7637 51 1 1.588495989465929 3.1925519415152173 8.415993575222517 1 0 0
3263 48 1 15.783078104573036 9.176816108323289 8.515319433412266 0 0 0
4376 28 1 17.00841463192823 20.02412809267417 2.156964157381762 0 0 0
9265 61 1 8.035200378713427 20.481423243928237 17.368730661754217 0 0 0
2498 49 1 15.451423735907817 0.5925515602624563 7.542194963724434 0 0 0
2873 20 1 15.56734736972674 5.136612393165151 7.5437710498694095 0 0 0
2874 20 1 15.560315745590714 4.379929979451324 8.923689194738124 0 0 0
2875 20 1 16.33925750964785 5.172161583140051 9.962787353772505 0 0 0
2876 20 1 16.61240471011912 4.387094239597907 11.278914259159123 0 0 0
1979 41 1 16.92404789557864 20.300072806702577 19.507763590615987 0 0 0
7636 51 1 1.6129753449074835 3.2215869166422335 6.890578094042246 1 0 0
8023 54 1 2.682482901901023 6.963092022069773 10.428595676520557 0 0 0
1566 10 1 3.272833518898819 14.311787913046993 0.8470302525558242 0 0 0
3095 20 1 14.2236109307187 5.3542011264356155 5.447728832249183 0 0 0
3096 20 1 14.427215883655991 4.564345348799795 6.735014584749954 0 0 0
9635 64 1 1.4366881515476049 25.451798671456977 6.395864839613902 0 0 0
4848 2 1 17.092475622818213 24.917317895320632 1.047871136799155 0 0 1
1980 41 1 18.341163595768965 20.30590923102043 20.078671379413443 0 0 0
7641 51 1 4.0406605984787225 2.889593038851524 12.873968393098522 0 0 0
2501 49 1 16.799707340508675 0.18044949811646266 11.117781811573478 0 0 0
8022 54 1 2.764007945985594 7.135663918268116 8.881639827574782 0 0 0
3257 48 1 12.273878148151647 9.181885928763586 1.6460008104141117 0 0 0
3258 48 1 13.319899607177078 9.767709640762803 2.54810351174535 0 0 0
3259 48 1 13.311451997322537 9.458365410681179 4.0304134926970745 0 0 0
3260 48 1 14.617087321392866 9.794517232789712 4.8022012667001945 0 0 0
3261 48 1 14.54912388764208 9.379568513772941 6.25719269377108 0 0 0
1978 41 1 16.884416908808756 20.70124936935873 17.980607771732046 0 0 0
9348 63 1 3.9392835442142564 22.66229705673211 19.672708615761405 0 0 0
3702 44 1 17.265787357938148 11.523548678203635 1.9083274073758825 0 0 0
238 29 1 18.144510822646833 2.6022498357622563 22.285177775125337 0 0 0
3099 21 1 18.521386985689553 7.169581633754244 2.9590907181160953 0 0 0
9645 64 1 7.375853635867227 25.16803046027336 17.64973231433447 0 0 0
2490 15 1 7.278182183231814 25.042551747507243 1.9469570769918294 0 0 0
3703 28 1 16.230211329627462 13.793783236743355 8.482716426820467 0 0 0
3704 28 1 17.335523874759275 14.37130080422448 9.37832184842056 0 0 0
3705 28 1 17.46862834275288 13.63992119538641 10.70110594198017 0 0 0
4372 27 1 13.52380881876517 17.85484387055033 2.6286798470113673 0 0 0
2283 15 1 18.165443630896178 24.35012096430168 20.759654776787983 0 0 0
8796 58 1 0.2659319019114856 16.274240859294746 3.9330682035258175 0 0 0
913 5 1 14.6608486040624 9.419594459385802 22.93133633987364 0 0 0
8415 58 1 1.9976013810431772 11.554421121125953 8.534129742455494 0 0 0
3925 28 1 14.903771749131177 13.753220840641466 6.296972026289126 0 0 0
3926 28 1 16.19287101762833 14.106695012234935 6.938921110804915 0 0 0
9346 63 1 2.902951012550678 22.813296741343695 17.285351046487214 0 0 0
8641 57 1 2.4862691735063223 14.329607065424241 16.713885390966958 0 0 0
8642 57 1 3.4446275676512257 13.584671447141368 17.624655030033672 0 0 0
686 55 1 16.08563682491216 7.065641629986737 17.615764581112497 0 0 0
4151 27 1 14.68094082863614 18.150348288827725 6.278426712069015 0 0 0
4152 27 1 15.972074283463142 18.099064809646165 7.079536741518541 0 0 0
4153 27 1 15.789329017979908 18.171453992749992 8.614660799724462 0 0 0
4154 27 1 17.013869662235432 18.66822332478826 9.412715990318537 0 0 0
4155 27 1 16.971063003003145 18.300645367454067 10.887356472828907 0 0 0
1722 21 1 8.66179042451127 16.639011164194404 1.9071952672096029 0 0 0
7640 51 1 4.098323851842965 3.0115450255548297 11.330017020988617 0 0 0
9030 59 1 4.340978174140455 18.71767379418032 20.89309645483434 0 0 0
2281 15 1 17.078455603612795 24.505964991380605 18.519017527994134 0 0 0
3928 4 1 18.19743328503827 15.50642191290109 4.518648181323405 0 0 0
3267 48 1 18.50875686604235 8.92426103555973 12.872199666824562 0 0 0
1661 21 1 18.794104274249136 15.770390824326698 22.40138214356432 0 0 0
9344 63 1 1.839071311566934 22.873349210273563 14.909757093793297 0 0 0
8811 58 1 8.82641679356839 16.066957127124603 20.628608145113528 0 0 0
4533 29 1 12.093487293264358 22.719950078213433 2.887105950089115 0 0 0
4534 29 1 13.496072455435113 22.629222154873986 3.5708365556815385 0 0 0
4535 29 1 13.379532471827055 22.502810022876638 5.079338238777427 0 0 0
4536 29 1 14.773683862008697 22.379253030464696 5.739826775374095 0 0 0
4537 29 1 14.79035759901865 22.267662237139145 7.2550268196591166 0 0 0
4538 29 1 16.07752782995864 22.6757135462908 7.948651807730823 0 0 0
4539 29 1 16.11018918977969 22.827976846604 9.476126678798774 0 0 0
3097 21 1 17.467637038046234 7.369052350181485 0.6516836862649427 0 0 0
9267 61 1 8.880707032208084 20.589967463787648 19.821576611040868 0 0 0
7426 63 1 5.094584345240474 0.725096088523226 23.20071387686179 0 0 0
3265 48 1 17.30161731830982 8.841675711291021 10.599408322637718 0 0 0
3921 24 1 12.268763703404565 13.962897237536312 1.919762031859329 0 0 1
7868 52 1 2.907019873348875 5.4694280288758135 18.73070915280126 0 0 0
2054 14 1 13.344202591169223 22.180279610622247 20.368070879452638 0 0 0
463 51 1 13.418709744149318 4.701017447596567 21.547818065439795 0 0 0
3094 20 1 13.349572600852582 4.594432539666858 4.426324877329653 0 0 0
9032 59 1 5.352388213129217 18.434283584415134 23.289873416908275 0 0 0
8416 58 1 3.317728034750793 11.688715934136088 9.33248452904851 0 0 0
9025 59 1 1.6318449160808968 18.29434155754531 15.08724451812814 0 0 0
9264 61 1 6.676081758328706 20.50344983280707 16.696574282469303 0 0 0
9029 59 1 4.264924622582555 18.28507806646151 19.475629491384897 0 0 0
8244 55 1 0.49784299557145867 9.659950298313078 14.898373374509328 0 0 0
684 55 1 14.809266500512695 7.174647058131696 15.344581956680662 0 0 0
3480 44 1 18.314400450484307 11.388192022473323 4.329360656669344 0 0 0
9263 61 1 6.633091657243665 20.211510891472543 15.172844254068089 0 0 0
9262 61 1 5.269606737388976 20.41813691395823 14.550006952007285 0 0 0
2041 41 1 7.2987955669112585 20.94729189695693 0.28190638896432463 0 0 0
8799 58 1 1.2785020328126728 16.43878884187734 7.531471871018196 0 0 0
1360 10 1 13.589554488184334 13.810122176411868 21.520802796673603 0 0 0
8647 57 1 5.172786095033725 13.662937711021758 23.551439649364536 0 0 0
9261 61 1 5.368070579195874 20.423335892433954 12.949574548163504 0 0 0
4374 27 1 14.764291632968204 17.830869544345667 4.771770295674515 0 0 0
8814 58 1 11.479983220448643 16.192461071242324 23.576186942772047 0 0 0
2877 20 1 17.827286146804752 4.950066073412356 12.007481732191302 0 0 0
9260 61 1 4.084354495715944 20.71886007891066 12.23915206142243 0 0 0
7638 51 1 2.9503204970083186 3.2171052247957745 9.101155601948353 1 0 0
4378 28 1 18.46327286014498 19.95890495599668 4.38588294287405 0 0 0
1358 10 1 12.16979903814518 13.754013617118858 19.43929326840853 0 0 0
219 3 1 3.6883412024337927 0.8181833587095523 3.711625873462918 0 0 0
9255 61 1 1.3966908072704638 20.96953222522394 6.134789911615567 0 0 0
9258 61 1 2.850650681180061 20.881648597896312 9.986120203558025 0 0 0
9027 59 1 2.987211318729907 18.212441828906954 17.229273452548576 0 0 0
685 55 1 16.05474005155708 6.721699121618621 16.11488056585532 0 0 0
9639 64 1 4.013260447302892 25.383081038064326 10.811915633748942 0 0 0
2278 15 1 14.768903113307159 24.94042326612057 15.354409982785688 0 0 0
8251 55 1 5.295926283475069 9.308589078249875 22.243501216811257 0 0 0
1361 10 1 14.962230800253671 13.420362505154097 22.10486212773905 0 0 0
1133 19 1 17.40158823963363 11.694522024615294 17.931700297160745 0 0 0
7423 63 1 3.5617241027920894 26.616331519353285 19.688756169523046 0 -1 0
7424 63 1 4.219518716552377 0.7503866110974179 20.7641628689842 0 0 0
7425 63 1 4.627533591736814 26.596332761647044 22.000064863195277 0 -1 0
8643 57 1 3.5014793890852767 14.158731654619688 18.988075358841677 0 0 0
8803 58 1 3.71901051005026 16.513889991443303 11.87649115549729 0 0 0
8806 58 1 6.175138030495874 16.177601735390137 14.905287288513072 0 0 0
1975 41 1 14.565250288487686 19.945657284709814 14.993040503365297 0 0 0
7871 52 1 5.055517913390419 4.964391214906817 21.857530955497552 0 0 0
4610 29 1 10.9067679303442 22.73208611670895 0.46913175905263055 0 0 0
8024 54 1 3.9868769058866764 7.33617660310255 11.15335242550383 0 0 0
8412 58 1 1.085952186274334 12.08310958105429 4.749269401943812 1 0 0
8243 55 1 0.5777381007093773 10.109010155574229 13.438669126711494 1 0 0
7642 51 1 5.3848919526892844 2.9244153928551366 13.566200621581501 0 0 0
7643 51 1 5.277926702017521 3.1155060467726514 15.104654602555371 0 0 0
7644 51 1 6.639623470607701 3.0789287798042735 15.806460499519023 0 0 0
7645 51 1 6.573914310141926 2.932160040596854 17.35678713963381 0 0 0
7646 51 1 7.926764040262887 2.8821053930484286 18.05901342339799 0 0 0
7647 51 1 7.7895022219068855 2.6246491330897723 19.583533861220488 0 0 0
7648 51 1 8.941840259841426 3.1070296603784304 20.435916360571156 0 0 0
7649 51 1 8.65976244870333 2.6644625548635075 21.85632280765419 0 0 0
7650 51 1 9.832576010369722 3.052227981373626 22.685313511824035 0 0 0
3091 33 1 12.451944832284559 4.985358099635558 0.5846874772278449 0 0 1
237 29 1 18.21070713583794 2.5043259587371622 20.79456853898919 0 0 0
1981 41 1 18.20635363087381 20.008474686904904 21.578287905408285 0 0 0
687 55 1 17.168813749455094 6.51985288700939 18.52543719369651 0 0 0
2502 49 1 18.020966278661092 0.7048225597539602 11.933611334611276 0 0 0
2279 15 1 16.079093476757876 24.702869645029114 16.18008836767602 0 0 0
4540 29 1 17.448477673763442 22.6254731289593 10.18963112652253 0 0 0
7865 52 1 1.4874635899298503 5.033196951547708 15.122328801029461 0 0 0
8809 58 1 7.516057079041813 16.263421803303356 18.505196265717892 0 0 0
9349 63 1 3.686185340878941 22.468209539568456 21.134983602999696 0 0 0
9268 61 1 8.664010445702292 20.810219628989145 21.32789466499801 0 0 0
8805 58 1 4.83540760176754 16.363287492734866 14.171906399588664 0 0 0
1799 11 1 3.9242318405318266 18.351289996304278 1.9887135420033724 0 0 0
9647 64 1 8.544052137435008 25.139107324480168 19.872776346951802 0 0 0
7869 52 1 4.0895407906018475 4.937497497817745 19.53644927893534 0 0 0
7870 52 1 4.011920378914791 5.579860730554416 20.902771072601002 0 0 0
8807 58 1 6.122094375331693 16.40985260712011 16.437075375440646 0 0 0
9266 61 1 7.709184394461974 20.65433248335237 18.894679964054664 0 0 0
9259 61 1 4.198953862024811 20.656771001936658 10.739717467120546 0 0 0
9345 63 1 1.628014296022724 22.783405074732773 16.453252508884777 0 0 0
8021 54 1 1.425044774396448 7.099983681185948 8.204392367179418 0 0 0
8248 55 1 2.625941735303419 9.466762857971755 19.413693154759233 0 0 0
3923 24 1 13.481710350044654 13.58614888860862 4.128899642506939 0 0 1
3706 28 1 18.32227690222507 14.37531605685415 11.698777100791993 0 0 0
8025 54 1 4.052800981698283 7.0656970293192485 12.65636378168834 0 0 0
8026 54 1 5.361850099622178 7.505071119495599 13.360483555881641 0 0 0
8027 54 1 5.3261842587615655 6.995778416923543 14.785836855343327 0 0 0
8028 54 1 6.515102236274642 7.515869826431869 15.614360423303083 0 0 0