LAMMPS data file via write_data, version 23 Jun 2022, timestep = 11111117

9706 atoms
2 atom types
9690 bonds
3 bond types
9674 angles
3 angle types
9658 dihedrals
3 dihedral types

0 36.89775039 xlo xhi
0 26.67072 ylo yhi
37.06497815894845 199.68662624102745 zlo zhi
0 5.116431139413421 0 xy xz yz

Masses

1 14
2 15

Pair Coeffs # lj/cut/omp

1 0.0914 3.95
2 0.1947 3.75

Bond Coeffs # harmonic/omp

1 449.5 1.53
2 449.5 1.53
3 449.5 1.53

Angle Coeffs # harmonic/omp

1 62.0967 114
2 62.0967 114
3 62.0967 114

Dihedral Coeffs # opls/omp

1 1.411 -0.271 3.145 0
2 1.411 -0.271 3.145 0
3 1.411 -0.271 3.145 0

Atoms # molecular

1 1 1 9.563596769161776 26.353752794197746 44.67489020960773 0 -1 0
2 1 1 10.490685656437611 26.49705718840004 45.83184255323581 0 -1 0
3 1 1 11.225192968836279 25.226206509812584 46.18950854385231 0 -1 0
4 1 1 12.29701454866247 25.3539488785014 47.26922051189373 0 -1 0
5 1 1 12.700001452146283 24.10534721120654 47.91379344253226 0 -1 0
6 1 1 13.619011050310432 24.21266650043534 49.01466109675408 0 -1 0
7 1 1 14.274498506536606 22.91071774374542 49.30430954947979 0 -1 0
8 1 1 14.660613206791867 22.642822156384046 50.75649201427156 0 -1 0
9 1 1 15.911829578505953 23.48741892184258 50.988983280080475 0 -1 0
380 3 1 8.832022097527604 3.9693868496773446 38.27516314098581 0 0 0
2182 15 1 3.768900139303672 22.247472947889655 38.549957365685735 0 0 0
2501 11 1 13.25838806534883 0.9222748349250175 38.34255643358322 0 0 0
7807 34 1 5.608011197118309 3.3514347474715462 50.76454996609852 0 0 0
1048 15 1 8.04642101628883 10.207909817659635 42.99249658381339 0 0 0
2105 14 1 8.92218581008709 22.16574644171326 39.732512257123744 0 0 0
9350 10 1 3.6557675212846212 23.651001334854733 48.42641331232425 0 0 0
1499 9 1 4.006829628175133 13.797838395446963 39.69237064762761 0 0 0
74 1 1 5.480556932101012 0.6967275165568155 39.97761940381902 0 0 0
75 1 1 5.670312333687365 1.1962142952372286 41.31926017121063 0 0 0
76 1 1 6.880651868605298 2.0886235799497266 41.522917579984934 0 0 0
77 1 1 7.517328197492055 2.2769109125940714 42.8661057456033 0 0 0
78 1 1 8.158874415721654 0.962172926876595 43.14740074658059 0 0 0
79 1 1 9.123794068128342 1.0847428828947845 44.231331385489085 0 0 0
159 3 1 10.610079125534147 3.3838967924419174 41.63882151940296 0 0 0
160 3 1 11.635292768487862 2.299269690941192 41.83014089302661 0 0 0
161 3 1 12.317470260682674 1.9876457690267613 43.2040841955952 0 0 0
162 3 1 13.27984923735442 0.8879652053040143 43.38293109273761 0 0 0
163 3 1 13.925592826840044 0.757643090688712 44.722758358982745 0 0 0
164 3 1 14.804978836121913 26.17241822844582 45.00757023307948 0 -1 0
165 3 1 15.191818811014999 26.014404377609278 46.47553126695873 0 -1 0
166 3 1 16.19320873885489 24.990667566652718 46.32713829411238 0 -1 0
167 3 1 16.6532898569622 24.910329028645794 47.7502405744288 0 -1 0
168 3 1 17.345910888499073 26.119289499089806 48.22381438219137 0 -1 0
9246 64 1 2.4328626516846374 20.05220756345855 42.15540197058333 1 0 0
9348 10 1 2.1500967473290538 24.643357091591664 46.836293974727894 0 0 0
6689 20 1 2.078331503954613 20.22981203430468 51.34423154714068 0 0 0
8181 56 1 3.7112985055878176 10.230219856926356 47.93816824688378 0 0 0
8344 38 1 4.525963382957615 13.543026837033517 44.33388010072194 0 0 0
9258 64 1 11.301837378044556 17.21555197709759 51.30454987255849 0 0 0
1723 10 1 7.386184200226625 16.19843415080627 38.40592456482721 0 0 0
382 3 1 10.105570357598362 3.0965979291022463 40.240927188336194 0 0 0
383 55 1 7.562444437446221 6.852391608357287 43.483763463384186 0 0 0
384 55 1 8.217347211311994 5.501300359982547 43.47814923029543 0 0 0
385 55 1 9.16141573062086 5.517052606124767 44.678814208290355 0 0 0
386 55 1 9.94006892392442 4.247499942579737 44.74929025144307 0 0 0
387 55 1 10.784146956906028 4.5511046802872706 45.94918335129916 0 0 0
388 55 1 11.334711293170276 3.2672954515464543 46.597806111641134 0 0 0
389 55 1 12.278726299794183 3.3835580975311235 47.764598551383905 0 0 0
390 55 1 12.894135455614068 1.976266260195145 47.80562821740902 0 0 0
4631 31 1 18.07307642471351 23.036456296443454 39.731836469112324 0 0 0
4416 30 1 17.63901265964215 18.57458691523677 44.65650422919569 0 0 0
2341 40 1 8.573387921347502 26.20436734619945 38.55494426097987 0 0 1
8346 38 1 5.373094146741872 12.937955186711367 46.422006442947556 0 0 0
157 2 1 2.5949561514724526 25.346069964640957 38.25891417944344 0 -1 1
7138 48 1 1.0901524881866296 25.72293634481862 51.10242532717183 0 0 0
7141 48 1 3.9771570545039654 23.688474575633208 52.59391396795114 0 0 0
2183 15 1 4.165723479886044 22.173656314903404 39.94143759958075 0 0 0
9355 10 1 7.0390202138329485 19.73970164675579 52.437055433215036 0 0 0
73 1 1 4.293663328862844 26.41983686007973 39.93749170122519 0 -1 0
3720 27 1 13.156707420326061 14.03941788183473 38.72504150366695 0 0 1
1290 9 1 15.873179691138715 10.935561647717416 51.16806093708326 0 0 0
604 55 1 5.797510938665022 5.571204381236291 40.27676754748131 0 0 0
605 55 1 6.642282188860449 5.737576318769138 41.537335884201255 0 0 0
606 55 1 7.094945877360984 7.017304684747097 42.0397613653692 0 0 0
1041 7 1 3.414630110936451 7.354452638045055 38.563280312177085 1 0 1
608 51 1 8.399722281810957 8.477027119643441 38.33245701795357 0 0 0
609 51 1 8.792365514602107 8.764994073121542 39.86529211623861 0 0 0
610 51 1 9.829504367586287 7.6177838793548895 40.06930162941715 0 0 0
611 51 1 10.49652783451779 7.538279866459832 41.47286750589538 0 0 0
612 51 1 11.52505144504131 6.3770228897481545 41.50474682719198 0 0 0
613 51 1 12.206151827499486 6.7931010586065215 42.863268175093815 0 0 0
614 51 1 12.94433445302651 5.60800805348447 43.2008940941362 0 0 0
615 51 1 13.86396925276441 5.659598926887402 44.413720674342684 0 0 0
616 51 1 14.310586112950611 4.349003968248088 44.833112595250284 0 0 0
617 51 1 15.101345556308855 4.384634081941332 46.14022788727124 0 0 0
1064 8 1 18.720810784265154 9.411823376963255 49.877031283017274 0 0 0
9631 3 1 0.39394236866961285 23.05653439715781 40.49708146006459 1 0 0
3719 27 1 12.190952449652407 14.027098928118406 37.51281742955659 0 0 1
8339 38 1 0.5433327874770632 10.59294335303707 40.485018656998136 0 0 0
3723 27 1 15.417959108461805 11.794235132103704 40.873156127895015 0 0 1
7137 48 1 0.6885095786191049 26.03723211591145 49.72078451973081 0 0 0
4185 61 1 17.080111028245202 19.384861439568656 37.71961219838289 0 0 0
831 15 1 13.44713635676266 6.5637116231287465 49.272147689339434 0 0 0
832 15 1 14.479215592448671 5.529764294781571 49.272847274263164 0 0 0
833 15 1 15.252199904854402 5.142708304156771 50.42642466565883 0 0 0
834 15 1 15.888801087856665 6.283318930045955 51.08936780837389 0 0 0
3726 24 1 17.964747354333074 10.996340637577724 43.84180533208595 0 0 0
8572 41 1 3.4057441809648474 14.790080121200795 48.648291549562146 0 0 0
393 55 1 14.915818918723204 0.789483904022632 50.62936084189969 0 0 0
2884 4 1 11.890639154361851 6.233396246094965 37.135810661388646 0 0 0
8093 55 1 2.5379959408642967 6.6045294939133825 41.89028634924912 1 0 0
3725 27 1 17.24589428551654 10.771534571703567 42.50087938560987 0 0 1
4628 31 1 16.173909912133375 25.013504475595568 37.32209982081734 0 0 0
8574 41 1 5.043394613155693 13.796561780039992 50.14158538470069 0 0 0
8183 56 1 5.270563378090482 9.515501057168718 49.80003347724777 0 0 0
7803 34 1 2.508158669530477 5.998231225896418 47.48932669629872 0 0 0
6691 20 1 3.3822876966321704 19.006566255739124 52.765045307620966 0 0 0
2583 19 1 17.589429296755693 1.7880726963549363 38.7840224385057 0 0 0
3283 23 1 17.06583906204912 10.397215763259092 37.88757809556859 0 0 0
1049 15 1 8.407501596216939 9.977237802920973 44.478453207977694 0 0 0
1050 15 1 9.788677087529068 9.236110578102537 44.688498100688115 0 0 0
1051 15 1 10.189509411024854 8.994222122276543 46.13997468844898 0 0 0
1052 15 1 11.3968112379076 8.13087037468076 46.15639533378293 0 0 0
1053 15 1 11.47163794671371 7.558060647205787 47.50044930322589 0 0 0
1054 15 1 12.816650640632949 6.964778354259693 47.82336454563335 0 0 0
1055 8 1 11.943211436177483 10.930369631877328 42.84090133106816 0 0 0
1056 8 1 13.137428726561796 10.11459525357117 42.93335237785716 0 0 0
1057 8 1 13.711007360235982 9.940674873792934 44.31784549418437 0 0 0
1058 8 1 14.725120701217694 8.85099930780364 44.30131147106878 0 0 0
1059 8 1 15.167376071330972 8.55255356719041 45.69490213540725 0 0 0
1060 8 1 16.217725016658964 7.515760325842971 45.879410190689924 0 0 0
1061 8 1 16.745631140925383 7.330791830567175 47.266874971648576 0 0 0
1062 8 1 17.59867053219278 8.516594454663974 47.71359229586356 0 0 0
3123 20 1 13.533085544080338 8.263219012035453 39.68209478665309 0 0 0
7355 16 1 0.8850968285310132 1.2147518338895518 45.39698123819536 0 0 0
3722 27 1 14.579110321167844 12.951379885504972 40.479418297603566 0 0 1
6688 20 1 0.9627969873239347 21.222393243651695 51.242537474931005 0 0 0
1498 9 1 3.983668573393822 12.811945956542575 38.534438736182935 0 0 0
9642 3 1 8.629465338901346 23.02526463536934 49.14609779708567 0 0 0
5852 38 1 1.1139580091024053 12.484841474984663 51.14518743790891 1 0 0
1276 8 1 9.715714440812667 11.88542057778352 40.18109382278151 0 0 0
1277 8 1 10.716792197403205 12.295595822004511 41.268188389778764 0 0 0
1278 8 1 11.502877542392874 11.019913881641777 41.461663914580015 0 0 0
1279 9 1 7.051468469214547 15.725929450546964 43.05060592950288 0 0 0
1280 9 1 7.845738404736889 14.451299824210949 43.673745046046434 0 0 0
1281 9 1 8.760056446564448 14.347195638901258 44.873116152215495 0 0 0
1282 9 1 9.664307958961716 13.139003514798164 44.92170457622662 0 0 0
1283 9 1 10.645397078761022 13.012190942970998 46.068926055633426 0 0 0
1284 9 1 11.507693654904848 11.752559243165702 46.18690948277047 0 0 0
1285 9 1 11.433981314218519 11.497513554350444 47.631166777874846 0 0 0
1286 9 1 12.794188612645186 10.806190362140208 47.834480283309475 0 0 0
1287 9 1 12.998052346779852 10.42607261777802 49.19383088398429 0 0 0
1288 9 1 14.456035706332536 9.847250381791419 49.39071522675728 0 0 0
4630 31 1 17.914946642289397 24.069824029206842 38.701520995086995 0 0 0
5026 34 1 3.321304932077801 1.391700200385565 52.658635688527255 1 0 0
8950 14 1 0.800538531194822 20.22690722045164 46.20697579778694 0 0 0
4414 30 1 16.2266095665631 19.798637567035854 42.91783036666437 0 0 0
9252 64 1 6.810430548622553 20.992094003179606 46.58882542668677 0 0 0
2185 15 1 5.685807030762596 23.32487652516289 41.810205135148905 0 0 0
2503 11 1 14.403520604698281 26.56171172188515 40.193123798453506 0 -1 0
8571 41 1 2.8046892432457415 14.544751565486374 47.27811415955408 0 0 0
1275 8 1 9.042248444875025 13.17511801778832 39.78894583181566 0 0 0
3128 20 1 18.126615000990437 6.336745753638745 43.7074883187341 0 0 0
1500 9 1 5.4184530190867966 14.025509225006894 40.150231306237785 0 0 0
1501 9 1 5.413653933355823 15.13983855492396 41.17431887651257 0 0 0
1502 9 1 6.777786488596707 15.583067165802342 41.52939553609239 0 0 0
1503 10 1 10.296373388522822 16.227578345181453 41.61056631426941 0 0 0
1504 10 1 11.470994590513971 15.4136833250234 41.654806126869744 0 0 0
1505 10 1 11.826908140482743 15.046369288516441 43.09929789003991 0 0 0
1506 10 1 13.071229728009449 14.157658295847815 43.24234411942075 0 0 0
1507 10 1 13.57016116732633 14.053341843271738 44.63276845402588 0 0 0
1508 10 1 14.60806883892081 12.995555841960353 44.72105350843675 0 0 0
1509 10 1 15.162446910415195 12.922355420310879 46.0801024313765 0 0 0
1510 10 1 15.98568627082828 11.714852557229394 46.29932204702411 0 0 0
1511 10 1 16.85540149936242 11.734787611333232 47.51843115273446 0 0 0
1512 10 1 17.456300139301263 12.996854109546526 47.97329579019757 0 0 0
4408 30 1 11.730901993503664 23.215500651953825 38.444125489556804 0 0 0
9639 3 1 6.873520379002512 25.054923931592572 46.27463940870664 0 0 0
9638 3 1 5.391779597234979 25.586731919834058 46.12721586447201 0 0 0
2184 15 1 5.214446591880165 23.18067645901026 40.37549462952612 0 0 0
836 15 1 17.193099036124394 7.610251946310593 52.84303703723002 0 0 0
1724 10 1 8.130728059449998 17.471963712996143 38.54184587793143 0 0 0
1725 10 1 8.957531178688761 17.566821437451292 39.799168198527596 0 0 0
1726 10 1 9.816076259985875 16.340500094898843 40.127147119039144 0 0 0
1727 8 1 6.691017497671572 19.969563449096107 41.986342119251546 0 0 0
1728 8 1 7.017302826204544 19.5804912469289 43.37935647095991 0 0 0
1729 8 1 8.229644762822328 18.62724915031936 43.36343136690651 0 0 0
1730 8 1 8.577924943325831 18.557630169178463 44.83136153926899 0 0 0
1731 8 1 9.758909561487302 17.587762689339034 44.90822778337128 0 0 0
1732 8 1 10.110284625782294 17.39632664429414 46.387421267110895 0 0 0
1733 8 1 11.55602803511465 16.780431545300612 46.630078479592875 0 0 0
1734 8 1 11.596290677883692 16.03725735617922 47.94269959483893 0 0 0
1735 8 1 12.745824863885485 15.130264967485921 47.80459388638906 0 0 0
1736 8 1 12.86263231226706 14.475726978109652 49.10745856087334 0 0 0
1737 8 1 14.322808532104641 14.150119526681342 49.30717785053318 0 0 0
1738 8 1 14.757251803228607 13.93032865504038 50.70671325325162 0 0 0
5025 34 1 2.517472534589423 2.669880504916367 52.58802790650505 1 0 0
2427 11 1 16.083242612259802 24.122989431813096 42.35721162446877 0 -1 0
9641 3 1 8.461184381778015 24.102773072855122 48.0997362689614 0 0 0
9637 3 1 5.6413066604972135 26.354898992348996 44.77701764558234 0 0 0
4409 30 1 13.18386452734314 22.95053877279212 38.54348722535847 0 0 0
8345 38 1 4.677056745780529 12.430002807124556 45.264192405277214 0 0 0
1045 7 1 5.81781519691203 10.073119685172964 41.3282321844242 0 0 1
8573 41 1 3.7594261882268825 13.607608784613639 49.41461491954708 0 0 0
1948 8 1 4.185885630979469 18.26128791567023 39.691654651145505 0 0 0
1949 8 1 5.558827185574809 18.860710928779902 39.96818567132722 0 0 0
1950 8 1 6.019029481299836 18.657608166055546 41.44432458576337 0 0 0
2030 14 1 11.859978710699925 19.673095382488654 42.892320390923295 0 0 0
2031 14 1 12.726686573696481 18.49174428058213 42.98713024978909 0 0 0
2032 14 1 13.097854031042159 18.585489170486554 44.399015846082555 0 0 0
2033 14 1 14.187650080841662 17.579179468698026 44.489089389894175 0 0 0
2034 14 1 14.805212493515654 17.386183338419922 45.876400371775716 0 0 0
2035 14 1 15.790497979780445 16.30781954190387 46.11869703382097 0 0 0
2036 14 1 16.349661033207486 16.26182373804855 47.58480220457827 0 0 0
2038 14 1 17.90605100254909 17.22782171707798 49.319767097087116 0 0 0
7365 16 1 8.74207869593693 24.19324467871752 52.51913711113938 0 -1 0
620 51 1 17.435522325418034 4.136800259158302 47.75923911878771 0 0 0
621 51 1 18.127580760656276 3.852967129060783 49.07918518231316 0 0 0
8956 14 1 5.260578421368375 16.851300856001384 50.82757162686133 0 0 0
8575 41 1 5.2984855696009525 12.513917042630888 51.06275922934955 0 0 0
8859 61 1 1.0893946164741415 15.120316451466508 39.84909845128972 0 0 0
7358 16 1 2.7504434279663066 1.1813486213763622 47.42412754134753 0 0 0
5474 22 1 0.8596432230189746 8.104784737174745 51.10797240995116 1 0 0
1273 24 1 7.6080775602405595 11.75334109476372 38.35679504520995 0 0 1
2108 14 1 11.173650041551968 19.64473929994653 41.548457465995234 0 0 0
2109 15 1 8.342281265081184 23.115925383480967 43.226298161304776 0 0 0
2110 15 1 8.948869659957351 23.080478888224405 44.64129328709072 0 0 0
2111 15 1 9.831003315369651 21.894251025964707 44.97195536714195 0 0 0
2112 15 1 10.43688982713452 21.970332822203574 46.39334974264967 0 0 0
2113 15 1 11.25618591144683 20.76485457204503 46.6684706102554 0 0 0
2114 15 1 12.082478641346295 20.618361287675942 47.96369268458682 0 0 0
2115 15 1 12.903535249010115 19.29548690850229 48.25291640245575 0 0 0
2116 15 1 13.729682470968443 19.257091999631406 49.49674750188559 0 0 0
2117 15 1 14.1368682031565 17.899672622247007 49.71265749691911 0 0 0
2118 15 1 15.0069718445097 17.924133154650498 50.96963549792368 0 0 0
2119 15 1 15.61392541403582 19.295868748187246 51.12674448714485 0 0 0
7576 51 1 1.0472952704527305 2.4730660524114083 41.54930067184939 0 0 0
2965 48 1 16.863712099298773 6.489648447882137 38.3137272291223 0 0 0
5477 22 1 3.7194998913976547 6.013960392061087 52.702896760144995 0 0 0
6239 41 1 3.5988169870769933 14.60937158853 53.09539380611342 1 0 0
8868 61 1 6.997270838008932 15.426029015126632 48.22447066302826 0 0 0
5476 22 1 2.343569734218352 6.650983145147575 52.50200684650193 0 0 0
3127 20 1 16.83407144175387 6.2280567178019535 42.97230776667801 0 0 0
8865 61 1 5.3050527916172046 17.760201376908487 45.538125634890896 0 0 0
6236 41 1 0.8212982080205996 16.72944120880252 51.28579722334301 1 0 0
158 2 1 3.7212289759398205 26.27837968582328 38.55756821035737 0 -1 1
2186 15 1 6.766493168621855 24.257419667001844 41.65675831394063 0 0 0
2187 15 1 7.638233428331744 24.469230848106108 42.91058949514162 0 0 0
2346 16 1 15.884528531131677 20.568928048849042 46.5018419741291 0 0 0
2349 16 1 18.23952797599698 21.26012251115279 49.53797715958244 0 0 0
7140 48 1 2.7044700898448966 24.575357077484753 52.50913264025118 0 0 0
1047 7 1 7.049106227303462 11.35170781388052 43.03041631851024 0 0 1
8340 38 1 0.9291629254580229 11.82526618412026 41.31762135962053 0 0 0
1044 7 1 5.162794450373262 10.25692359992981 39.98785396715231 0 0 1
8864 61 1 4.042318619005758 17.95719178850961 44.66234118135359 0 0 0
8874 61 1 11.652827548514697 11.553760828856587 52.53711159696786 0 0 0
8568 41 1 1.0645081851117797 14.61526061407436 45.06674908098293 0 0 0
5023 34 1 1.0814019441164382 3.939755399849345 50.916918614950994 1 0 0
8184 56 1 5.344681825121215 8.3507154223425 50.69942589679823 0 0 0
8866 61 1 5.527401350411057 16.43173346803249 46.292697495300764 0 0 0
8955 14 1 5.1393871184623805 17.931164557702587 49.84145795699641 0 0 0
10 1 1 16.10232854023651 23.937099379393786 52.37719551453651 0 -1 0
2421 16 1 12.865199462581613 22.82225068067012 43.320271218694046 0 0 0
2422 16 1 13.649162695712555 23.14966928293114 44.562128324723986 0 0 0
2423 16 1 14.56854343337283 21.91988136239843 44.76730862516008 0 0 0
2424 16 1 14.884020905254058 21.731983651226024 46.26727351153965 0 0 0
2425 11 1 14.74404614069721 25.29957070731963 40.925142400296544 0 -1 0
2426 11 1 16.036953576073735 25.408405889803497 41.50307005630183 0 -1 0
2814 4 1 17.854569178078346 0.5691141695033114 44.359147964409686 0 0 0
5854 38 1 2.565208377097525 11.200833033774426 52.680904833568505 1 0 0
1947 8 1 4.125032471410506 17.20316580552785 38.60996359457354 0 0 0
2348 16 1 17.492683158298192 21.246805683212077 48.21560927356258 0 0 0
7577 51 1 2.3873168582661863 2.2197463188205924 42.16783250503472 0 0 0
9633 3 1 2.107995878040502 24.077489340482035 41.78374274549967 0 0 0
9640 3 1 7.019666130057743 24.196369054945777 47.53307981478544 0 0 0
391 55 1 13.651398869364707 2.2188859273765167 49.04246169402602 0 0 0
8957 14 1 6.585443057863961 16.8553114516661 51.542721769880444 0 0 0
5475 22 1 2.0510028669486453 7.265857772275811 51.17538815458254 1 0 0
3129 20 1 18.244334999388872 5.012438194731631 44.57775827269178 0 0 0
3721 27 1 13.610964775926329 12.826999366650183 39.349273930877764 0 0 1
8871 61 1 9.906360295781424 13.627763447552567 49.84383884103067 0 0 0
392 55 1 14.347066817195412 0.8995709024894195 49.24857196049981 0 0 0
2809 4 1 14.987401243925557 4.2478767387047265 40.26452541620182 0 0 0
2810 4 1 15.233148031651726 3.3362449016797475 41.468046656288735 0 0 0
2811 4 1 16.542429889866145 3.1194347797097826 41.99695939792912 0 0 0
3950 25 1 18.019368299677687 13.869387355684715 39.847048291873996 0 0 1
394 55 1 16.177830785296077 1.6492484870172537 50.8402491606742 0 0 0
1291 9 1 16.382870813792657 10.806439515985183 52.62837126447897 0 0 0
8952 14 1 2.3649730495334618 19.07284625654278 47.60066747547549 0 0 0
7579 51 1 3.7242535488098127 3.4703568415291843 43.80185102118074 0 0 0
8341 38 1 2.3205709760403206 11.672514194989247 41.87592477384816 0 0 0
618 51 1 15.814470546838013 3.078135744279424 46.01900798716975 0 0 0
7802 34 1 2.2800363453826638 7.033950878824951 46.44417057840887 0 0 0
9257 64 1 9.97488002451849 17.31236681705449 50.61246337037402 0 0 0
8577 41 1 6.945676894228737 10.894305289317211 52.33070157821531 0 0 0
3124 20 1 14.880517500899975 8.312271116703323 40.313393140030364 0 0 0
3125 20 1 15.212994363045025 7.234657904323849 41.33391256646292 0 0 0
3126 20 1 16.63322632008457 7.326178725615236 41.981567889301814 0 0 0
1040 7 1 2.147004125656952 7.720444962718911 37.86398384924548 1 0 1
8092 55 1 1.1505811905757086 6.969960424555374 41.409614182831106 1 0 0
7808 34 1 7.039033563452059 3.228862755841752 51.37155636317408 0 0 0
5024 34 1 1.9259351332514694 2.705913255264972 51.221927427405134 1 0 0
607 51 1 7.661908311055198 7.177803465058172 38.38345234789383 0 0 0
1946 8 1 3.0519044224776555 17.317435467854157 37.551239235480374 0 0 0
3947 25 1 16.48061425994484 16.142267409924578 37.10229174710969 0 0 1
2107 14 1 10.478554288635197 20.937304215893818 41.268490794172315 0 0 0
9636 3 1 4.168641337344867 26.608506445601822 44.241649012913896 0 0 0
7589 51 1 11.537679948145279 26.29476804947573 50.92746295741435 0 -1 0
2340 40 1 7.640253594026357 25.063721024507956 38.36866367593701 0 0 1
9349 10 1 2.3160393819450356 23.487552135182153 47.758808457413835 0 0 0
2181 15 1 2.534101628568625 21.536615526886923 38.10398429867895 0 0 0
8949 14 1 0.959404012425115 19.045801576069643 45.25894114048107 0 0 0
2342 40 1 8.893251233230924 26.479365850708316 39.89511827361329 0 0 1
8870 61 1 8.462941311594276 14.251736529867056 49.71916109076777 0 0 0
8351 38 1 9.549518248905848 9.941924047132243 49.71483562459111 0 0 0
3718 27 1 11.521894340418465 15.37447025534331 37.17199616348 0 0 1
2966 48 1 18.19492189649055 6.097834939301695 38.59521005718484 0 0 0
8186 56 1 6.8583171643467775 6.903430770057416 52.16647455488256 0 0 0
2106 14 1 9.617612499645753 20.914753341743165 40.07095790280845 0 0 0
9249 64 1 3.8623295966400493 22.152917266152237 44.681206700441464 1 0 0
9256 64 1 9.81868370361054 18.560630018886595 49.644166036768596 0 0 0
2584 19 1 17.868662338180094 0.6371353351455432 39.717016589497184 0 0 0
3953 42 1 13.33935513822667 18.754617057860063 38.37279954908741 0 0 0
3954 42 1 13.447302657652562 17.72014858932187 39.52508669616209 0 0 0
3955 42 1 14.792066741992253 17.78725220412585 40.190346710998604 0 0 0
3956 42 1 15.023970583556235 16.439862612555356 40.79023822250364 0 0 0
3957 42 1 16.071326666551464 16.519449440904655 41.91896619768573 0 0 0
3958 42 1 16.441109130651586 15.213151078913203 42.66812487154936 0 0 0
7357 16 1 2.3958268176412263 2.548132131963745 46.88967430088718 0 0 0
8872 61 1 10.023370912844754 12.853420933784347 51.14354512021577 0 0 0
7809 34 1 7.103741711231111 2.1447720488472326 52.48276018139659 0 0 0
8570 41 1 1.9008173927701484 15.749570327602573 47.15922327979931 0 0 0
1740 8 1 16.17834630245044 14.986629240066133 52.51216734923477 0 0 0
1513 10 1 18.28292746470652 12.824078672594066 49.21297232497275 0 0 0
1042 7 1 4.205712660633516 8.559410889530477 38.26435976003518 1 0 1
8350 38 1 8.22366414025318 9.984297508082523 49.01079637122592 0 0 0
8177 56 1 0.3843072677696521 10.441720590686046 45.2435861971357 1 0 0
8576 41 1 6.563111113630588 12.324433397131344 51.78240510424589 0 0 0
8348 38 1 6.754935053698266 11.308169722283537 47.791858218135374 0 0 0
3948 25 1 16.38684011289562 15.092188418152949 38.21157016687348 0 0 1
7359 16 1 3.3807340258336525 1.4879703637271182 48.74367205800205 0 0 0
5022 34 1 0.4621882276092161 3.8309375243012656 49.567027190666835 1 0 0
2582 54 1 11.781976728494788 0.8715601054450248 37.883907503793154 0 0 1
7364 16 1 7.300800360771331 24.375443212788714 51.86385022014479 0 -1 0
8342 38 1 2.4965603007720927 12.284645252436018 43.217107829750795 0 0 0
8862 61 1 2.7470940576368887 17.010280932516668 42.57408140297993 0 0 0
8107 55 1 12.018511328312025 2.5915194496124436 52.023294421827124 0 0 0
7575 51 1 0.6214180378405013 1.3109061870009149 40.57175844815734 0 0 0
2502 11 1 13.11830297626939 26.667864008629103 39.526443795508165 0 -1 0
7578 51 1 2.5698185829156315 3.570914393682844 42.92434281147811 0 0 0
9255 64 1 8.4979392268621 18.483684239397046 48.893553184000886 0 0 0
9254 64 1 8.232777450178181 19.817207776162434 48.276300465517856 0 0 0
8094 55 1 3.3026431152638205 7.7662909437233925 42.33886791669244 0 0 0
2428 11 1 17.473373510971868 23.989292294260064 42.90531658814003 0 -1 0
8869 61 1 8.428952152695498 15.28978060303133 48.62596339880517 0 0 0
2429 11 1 17.604738552892147 22.843563435184443 43.881748820447044 0 -1 0
1043 7 1 4.86909776226019 8.794504155362926 39.59755609117842 1 0 1
2885 4 1 12.035731063599455 5.0684405576030205 38.0552524014658 0 0 0
3724 27 1 16.37271957884138 11.944583427264973 42.02000379734772 0 0 1
2037 14 1 17.26170544090341 17.39631552461873 47.90421895982331 0 0 0
2343 40 1 9.746994498187266 25.321229629227552 40.282243415934985 0 0 1
2104 14 1 8.520943086205671 21.99046814398334 38.28885712744612 0 0 0
169 3 1 18.21344759987641 25.929764170520723 49.44805755959775 0 -1 0
8951 14 1 2.012756677826724 20.314305253928502 47.001859427013414 0 0 0
9632 3 1 0.8484881622345387 24.330455958533324 41.01730529683371 0 0 0
2812 4 1 16.388861603774664 1.8251838516403949 42.70458634585557 0 0 0
9163 63 1 1.0219171259591473 19.98548890898299 41.61892581392033 1 0 1
8863 61 1 3.9704852797667263 17.02555132767753 43.40059062790595 0 0 0
381 3 1 9.118677731682677 4.115428409432674 39.736907710278345 0 0 0
1046 7 1 6.4561245448212885 11.42610969822511 41.66979246942347 0 0 1
7591 51 1 13.131767335598495 25.170419604059425 52.48681281116609 0 -1 0
9346 10 1 0.709153006161158 23.249220147535254 45.30292820260374 0 0 0
9251 64 1 5.379761453049906 21.224142030104453 46.240877618419525 0 0 0
9247 64 1 2.5251627250705337 21.01352552017599 43.36450677118363 1 0 0
8349 38 1 8.157149297226757 11.23525766304365 48.12450533773331 0 0 0
9248 64 1 4.025191068936225 21.07881571528554 43.63097210914335 1 0 0
4629 31 1 16.63198867218792 23.731942018615502 37.96424060743242 0 0 0
7806 34 1 5.502895056946864 4.423329262124179 49.66837145511569 0 0 0
1289 9 1 14.924443000156938 9.716275213258257 50.816674260475125 0 0 0
9250 64 1 5.250828579402825 22.472894339657564 45.372906128988916 0 0 0
9635 3 1 3.6903676840109676 25.492485579977178 43.3138657677512 0 0 0
9253 64 1 6.999517672650266 19.699988466748508 47.40732726640306 0 0 0
8867 61 1 6.900127010498072 16.408729718695213 47.11630142134929 0 0 0
2808 4 1 13.727949415061472 3.865976886391313 39.606273786032496 0 0 0
11 1 1 17.464269467749563 24.3887243385256 52.743067889042074 0 -1 0
9351 10 1 4.098461128259571 22.357470087572548 49.08836285277811 0 0 0
7360 16 1 4.167657818640594 0.21312562855141493 48.91890794276466 0 0 0
7361 16 1 5.146784947959352 0.39827950699645687 49.9782425717589 0 0 0
7362 16 1 5.823301633702741 25.81849859941026 50.46225595051162 0 -1 0
2120 15 1 16.79803183842397 19.394238988717373 52.051798295632636 0 0 0
9162 63 1 0.9287820135659102 19.279046401917984 40.24256800194608 1 0 1
2806 19 1 16.58954417743849 1.652123992560265 37.688232299741685 0 0 0
619 51 1 16.573898974733183 2.923642414208197 47.285409822094934 0 0 0
4410 30 1 13.21165292886273 22.007535991655956 39.703746519127655 0 0 0
9644 3 1 10.15437052729883 21.87292937574513 50.658249722199315 0 0 0
2420 16 1 12.03475104305506 24.13406747619011 43.09751925317386 0 0 0
9353 10 1 5.408247977463219 21.10638087703746 50.883627087416656 0 0 0
379 3 1 7.651787950975963 3.0136947247658163 38.306188973396836 0 0 0
602 55 1 4.288779586155442 4.062505118199967 39.03375526686769 0 0 0
7580 51 1 4.115068030074432 4.837620708135128 44.3611732529777 0 0 0
7581 51 1 5.3754849005869 4.721148940226725 45.15500160390927 0 0 0
7582 51 1 5.542598879099985 3.387877831160029 45.68512010345828 0 0 0
7583 51 1 6.75663153034961 3.272937534077468 46.52946504620791 0 0 0
7584 51 1 6.915276914117276 1.97660441949264 47.25772074588024 0 0 0
7585 51 1 8.29561179851966 1.755326722455074 47.86585064552649 0 0 0
7586 51 1 8.489303254822373 0.5021733234285473 48.661247199525384 0 0 0
7587 51 1 9.993443611933122 0.38983839405098 49.00446295674493 0 0 0
7588 51 1 10.147895727576412 26.336747663154465 50.37610172188985 0 -1 0
9347 10 1 0.8514658094362992 24.52187728013614 46.06436393688669 0 0 0
2345 40 1 11.490328914567446 24.22040632089347 41.68116342051389 0 0 1
8347 38 1 6.686846912005191 12.210730547570755 46.537569505841965 0 0 0
600 55 1 2.458726633618209 3.306808253504069 37.609998688423296 0 0 0
3285 23 1 18.509579738975066 9.203208023104535 39.633729341443676 0 0 0
1739 8 1 15.918353847027975 14.726045084697066 50.99998661139965 0 0 0
4412 30 1 14.984094273860348 20.86264993911756 41.17120526603902 0 0 0
8959 14 1 8.151175321883542 15.409483869075858 52.969163790074205 0 0 0
9634 3 1 2.3808491495729043 25.398579353800077 42.552856663923706 0 0 0
7810 34 1 8.523132926569076 1.6757095699687792 52.721272983700274 0 0 0
8861 61 1 2.4576902775556246 15.739868375272305 41.903265523808855 0 0 0
8860 61 1 1.1574259979458086 15.948708627899586 41.14063555845191 0 0 0
7356 16 1 1.1269805853858907 2.5147613559570696 45.98303907898665 0 0 0
6237 41 1 1.7502708974347965 15.645233386232242 51.481220345895714 1 0 0
2347 16 1 16.181262084345477 20.583256771918258 47.9765624593137 0 0 0
4411 30 1 14.724551580919751 21.766640893575865 39.98294522879815 0 0 0
5853 38 1 1.885131042274571 11.118267050365857 51.3112105751226 1 0 0
603 55 1 5.014629320830723 4.325876151639555 40.3091238520518 0 0 0
3200 20 1 11.851194807203434 9.759200240198483 38.33944278780202 0 0 0
3201 20 1 13.290539392452999 9.471548521067437 38.893552363313866 0 0 0
8097 55 1 4.639759121270784 8.729298456042052 44.2416304688578 0 0 0
8098 55 1 5.438288095797493 9.045666641905415 45.457098884708046 0 0 0
8099 55 1 6.018292017813427 7.794689034901214 46.05195105943582 0 0 0
8100 55 1 6.812964462184412 7.904370223048824 47.28795873420041 0 0 0
8101 55 1 7.472525128453391 6.5004837132595945 47.4808766399465 0 0 0
8102 55 1 8.614870831139562 6.2763026836475175 48.50376819271403 0 0 0