LAMMPS data file via write_data, version 23 Jun 2022, timestep = 11112117

8487 atoms
2 atom types
8471 bonds
3 bond types
8455 angles
3 angle types
8439 dihedrals
3 dihedral types

0 36.89775039 xlo xhi
0 26.67072 ylo yhi
38.647618618643946 198.1039857813583 zlo zhi
0 5.0168445096394025 0 xy xz yz

Masses

1 14
2 15

Pair Coeffs # lj/cut/omp

1 0.0914 3.95
2 0.1947 3.75

Bond Coeffs # harmonic/omp

1 449.5 1.53
2 449.5 1.53
3 449.5 1.53

Angle Coeffs # harmonic/omp

1 62.0967 114
2 62.0967 114
3 62.0967 114

Dihedral Coeffs # opls/omp

1 1.411 -0.271 3.145 0
2 1.411 -0.271 3.145 0
3 1.411 -0.271 3.145 0

Atoms # molecular

1 8 1 4.638216209867832 0.15478452627077627 42.45638500749774 0 0 0
2 8 1 5.069523134665549 0.7229007973903733 43.83921958550098 0 0 0
3 8 1 6.138785077317882 26.565191653529908 44.54706225053436 0 -1 0
4 8 1 6.931154086265961 0.7348158905427362 45.5235547863424 0 0 0
5 8 1 7.9862424641017 0.08671030327222033 46.41256777312195 0 0 0
995 13 1 13.442106711522431 11.102439235687418 48.366445902229415 0 0 0
5968 46 1 2.149860968745079 0.10361021043669777 50.422202843395716 0 0 0
6859 54 1 2.7919656327746365 9.284518164968688 50.541930753388726 1 0 0
761 8 1 7.3574796875758155 7.430042936210307 41.10501742509795 0 0 0
3337 20 1 14.516929213378807 11.367127807487185 39.30268052103408 0 0 1
1894 11 1 14.277284389245965 20.96778601085898 49.095590318147565 0 0 0
8283 1 1 8.296248126080217 25.072770242692457 51.92925777880062 0 0 0
984 6 1 1.5481814505565634 9.516117485583312 39.84224927638394 0 0 0
1896 11 1 16.500416633254428 20.94889954646186 50.29248202284477 0 0 0
3784 23 1 14.235835519701745 15.809803756015368 39.644458150305155 0 0 1
8201 63 1 2.3809968977428104 22.665402478197436 50.79914568689102 0 0 0
233 60 1 16.27395698100694 3.4583423043991606 51.37871958932355 0 0 0
3557 22 1 11.170466737698034 14.407153852749051 41.0343249365165 0 0 1
3558 22 1 11.475273615332853 13.961609142481073 42.51999534285497 0 0 1
667 6 1 1.8350445677642604 4.810369233871262 39.95829402149946 0 0 0
222 8 1 1.5126573316780554 0.7035251404878663 40.581372180114094 0 0 0
223 8 1 2.6496435294391785 26.58683568587698 41.170697418410555 0 -1 0
224 8 1 3.429930517422508 0.9219322610313103 42.02912928751393 0 0 0
225 60 1 9.380232923301268 3.046637470998359 43.81942417890019 0 0 0
226 60 1 10.378679647616327 2.2268139918925636 44.7180677354238 0 0 0
227 60 1 11.12812700645038 3.082122884192868 45.714070941019145 0 0 0
228 60 1 12.064842752597169 2.3173747586835933 46.67188342384249 0 0 0
229 60 1 12.884718990697147 3.390091373923151 47.44272973864061 0 0 0
230 60 1 13.480414459794813 2.6619608655850007 48.66615742743329 0 0 0
3114 18 1 9.790083774361937 9.849436427985944 39.18715244013959 0 0 0
3338 21 1 15.196297674801391 12.048299365495945 40.491648169093956 0 0 0
1001 13 1 18.518240339734042 11.259941219445054 53.30472404841177 0 0 0
232 60 1 15.212596002143712 2.6254359624653563 50.55500114943924 0 0 0
2897 18 1 15.708570302163247 9.249578721587591 45.60238886617254 0 0 0
7309 36 1 3.4641727344915436 14.932190389113426 51.868136452562894 0 0 0
7532 57 1 0.659731100992804 16.612284475016676 44.13528967838091 0 0 0
3785 23 1 15.172756949120116 16.539865208890415 40.64839177046926 0 0 1
4752 36 1 18.41389033266188 8.815579152448533 39.38805863909473 0 0 0
446 60 1 7.006141090602458 2.438805189270844 40.57274545922018 0 0 0
447 60 1 7.9065513706247526 3.134697075872664 41.61889161534617 0 0 0
448 60 1 8.63122218542244 2.1919758576967636 42.732594836648296 0 0 0
449 6 1 6.972833468329241 5.150257590084971 45.29965789704422 0 0 0
450 6 1 7.505611008515199 4.477864484382235 46.576146118598245 0 0 0
451 6 1 8.424416989478942 5.402257006605757 47.3252323627881 0 0 0
452 6 1 9.25011125865396 4.722431896211739 48.39903598029901 0 0 0
453 6 1 10.193321339768032 5.732721206220586 49.12630464499579 0 0 0
454 6 1 10.668501400306267 4.823635611547668 50.16563389430797 0 0 0
455 6 1 11.701931901521679 5.565746797002335 51.03698560288775 0 0 0
456 6 1 12.345620940821188 4.658060110861352 52.04945287679404 0 0 0
457 6 1 13.276827720567683 5.57944347972614 52.75736516380252 0 0 0
2798 50 1 18.394415700869093 6.5780617287696845 43.8207352388176 0 0 0
4105 14 1 11.485062788181914 23.106116306817682 41.34985728687797 0 0 0
2271 14 1 16.023344978480306 0.12949558654708876 45.68561938678512 0 0 0
7981 62 1 3.1874468898301793 20.59848985910817 47.101515320515176 0 0 0
6413 31 1 1.8692257873960405 5.740853356508031 49.93794649716201 0 0 0
7307 36 1 2.060224335071083 14.850034961990534 49.84220407162374 1 0 0
2898 18 1 16.678429979003536 10.208314791451098 46.32546813033403 0 0 0
2140 53 1 1.5259749959022875 23.12601568465745 40.29739959287368 0 0 0
2107 11 1 5.068532949440867 20.16000093868605 38.92747931691396 0 0 0
1654 17 1 6.808013180851442 15.799176528066543 40.47472306050469 0 0 1
2488 15 1 10.239425781935497 0.8597132902980558 39.29407444384514 0 0 1
670 6 1 3.728208891905548 4.629723547859991 43.242374689282805 0 0 0
671 6 1 5.052345742026852 5.2623194955432675 43.65907976260583 0 0 0
672 6 1 5.677567899775736 4.545554306442254 44.853706301758415 0 0 0
728 8 1 10.830130663375552 7.493560480907636 44.8078598468648 0 0 0
729 8 1 11.576025466121434 6.606373164188399 45.76670032196452 0 0 0
730 8 1 12.711365527555461 7.38984465426092 46.44144914944576 0 0 0
731 8 1 13.253815603045382 6.94815975819703 47.813464585124606 0 0 0
732 8 1 14.394269219191232 7.689052797167876 48.36765134958339 0 0 0
733 8 1 14.687858717094151 7.037723239355757 49.6638948930265 0 0 0
4112 14 1 17.634695529160034 23.164657908430225 47.8798071615946 0 0 0
4416 30 1 14.962423167267534 24.23765113092934 40.043292829241345 0 0 1
2496 58 1 14.902815389385868 1.9439695648932398 39.36312126560312 0 0 0
7306 36 1 1.2791499668330477 14.019198690968022 48.86716098689067 1 0 0
1668 51 1 10.996855018422517 18.2842899654406 49.919852105538425 0 0 0
2788 16 1 9.448878082761519 5.106789992012004 39.13485654102272 0 0 0
2498 58 1 16.429324356209015 1.9226148465930986 41.44707769134767 0 0 0
983 6 1 0.614340117811217 8.921387690199403 38.74701336662185 0 0 0
7980 62 1 2.4056274773249386 21.225870710177045 45.83137722646406 0 0 0
1893 11 1 13.55896361575412 20.315552156077246 47.86337495854885 0 0 0
763 8 1 9.080832245460297 7.488007381228585 42.86657457775476 0 0 0
764 8 1 9.603370004094561 6.783589207455321 44.09074153583316 0 0 0
765 6 1 5.8510675618513455 9.520442488323104 44.340101317957824 0 0 0
766 6 1 6.346024099812751 10.023370279512536 45.627351790606255 0 0 0
767 6 1 7.384763937230867 9.181153934398441 46.2330305454716 0 0 0
768 6 1 8.09239865423306 9.944436660139493 47.309975153607475 0 0 0
769 6 1 9.042815366013283 9.058248974669516 48.167869446827964 0 0 0
770 6 1 9.795724757164194 9.999846540839846 49.18500867398254 0 0 0
771 6 1 10.519526665506767 9.250620399703738 50.34552923188842 0 0 0
772 6 1 11.579117300071191 10.008434359665877 50.957145448990964 0 0 0
1670 51 1 12.52787626324176 18.286518911768223 52.11076451048155 0 0 0
734 8 1 16.114373660244215 7.546219188818923 50.03469003690663 0 0 0
7539 57 1 6.486809189978815 15.96945069422894 50.19605743230391 0 0 0
2264 12 1 6.884523837045262 24.63272715743426 41.00349426347488 0 0 0
5967 46 1 1.232168098515734 0.9883183467488406 49.68462582065732 0 0 0
1221 48 1 14.44799295062621 13.93215546644141 53.56490136632031 0 0 0
1656 44 1 8.200117697301055 16.163315080551353 42.537251229139294 0 0 0
7983 62 1 5.112740968807071 20.989433773767754 48.67601069530234 0 0 0
1671 51 1 13.45272876626107 19.060215857612167 52.95751987418347 0 0 0
3555 22 1 9.553225954576547 14.400673953738838 39.02211958569685 0 0 1
1209 13 1 5.518829083311452 11.927581701648137 39.5913437022356 0 0 0
985 6 1 2.3911470945838795 8.624319767365876 40.80883060725547 0 0 0
986 6 1 3.391474662640533 9.650972143655855 41.3976400801622 0 0 0
987 6 1 4.233485667573593 9.114475576784894 42.56611600815691 0 0 0
988 6 1 4.666461798669296 10.15049023994129 43.64238352906728 0 0 0
989 13 1 8.873857572713606 11.72623640966555 43.37423082620366 0 0 0
990 13 1 9.782807494437504 10.659635788641491 44.1769519317535 0 0 0
991 13 1 10.953463747320138 11.199326130997601 45.00316482711481 0 0 0
992 13 1 10.665889010792801 12.482035852912519 45.78581458076118 0 0 0
3821 25 1 9.454546853625247 18.49604407606674 39.22952496843648 0 0 0
9 8 1 10.88831061496094 0.1236233834348152 50.18227122012503 0 0 0
999 13 1 16.620610304544783 10.99653899009907 51.43205992310483 0 0 0
4802 46 1 1.7164126129213904 12.64896571009797 53.64658059989559 1 0 0
4415 30 1 13.829568608234203 24.780543650545123 39.15300210344606 0 0 1
6858 54 1 1.954779478547552 10.032952897248038 49.52754566010278 1 0 0
1882 51 1 2.5223831935280234 17.827441454125047 41.40059032637106 0 0 0
6189 48 1 1.2955817002406724 2.385595171101592 45.297334830625275 0 0 0
762 8 1 7.742587197185605 6.9545462675925185 42.41121258765045 0 0 0
2492 14 1 13.067899533718453 1.0379732193553786 43.26918009316015 0 0 0
1886 11 1 7.629305692399297 21.17786853569441 41.58012968747883 0 0 0
6412 31 1 0.9755001648076673 5.13121056186402 48.89847573554677 1 0 0
1211 13 1 7.304872757018999 11.92206121190468 41.375639202035124 0 0 0
1212 13 1 8.262580560236836 11.08420053722202 42.046646418398375 0 0 0
1213 48 1 7.488805911623155 13.619780536566608 46.46262958271247 0 0 0
1214 48 1 8.336563749915829 14.612643027851766 47.270807969326704 0 0 0
1215 48 1 8.92901646189631 13.941283517859501 48.49938419350546 0 0 0
1216 48 1 10.040473758513947 14.6060554366621 49.12034613653311 0 0 0
1217 48 1 10.908132819277206 13.641435630118252 50.019436585227645 0 0 0
1218 48 1 11.70470265000745 14.498730138623143 50.948436142634165 0 0 0
3886 28 1 14.800455540985775 20.209002704318255 39.79907412855698 0 0 0
3562 11 1 15.644126944618144 13.35584840112903 45.51165537838682 0 0 0
1669 51 1 11.83383063324293 18.96695947024266 50.99935767223849 0 0 0
6196 48 1 7.465031043106289 3.8848632847176177 51.68645422147462 0 0 0
6633 34 1 1.7030708632084453 6.7389378576347045 44.48224070492884 0 0 0
5448 57 1 1.0286313827110423 21.331491178324207 53.62585433022888 1 0 0
7089 55 1 0.7950251930354839 11.856349936346106 43.731564612765716 0 0 0
4365 18 1 17.625217878827286 25.523005305917632 42.69636851817009 0 0 0
4108 14 1 14.047853747156632 22.743863926963343 44.35831541997553 0 0 0
1655 17 1 7.4332525324206085 16.7916306867043 41.418070694873265 0 0 1
5972 46 1 5.495048616275437 0.5325762569985009 54.093503395671156 0 0 0
2491 14 1 12.861509418951913 0.27550639586195047 41.906959065388506 0 0 0
2794 50 1 15.089677516742558 6.492132205177302 39.89286951498454 0 0 0
1433 48 1 3.909434470514208 13.895030654880568 42.84041641735241 0 0 0
1434 48 1 5.150354248399085 14.585658771439444 43.37260616603725 0 0 0
1435 48 1 5.482643515827009 13.84931238082338 44.65853081746249 0 0 0
1436 48 1 6.798141573233696 14.285150897903657 45.24165952413833 0 0 0
1437 44 1 12.511224954858019 16.80066983715849 47.20124846937136 0 0 0
1438 44 1 13.640928024699688 15.842397294998243 47.64954930660956 0 0 0
1439 44 1 14.206830028775974 16.537552246957663 48.843799436580696 0 0 0
1440 44 1 15.184647337110977 15.764787535340808 49.81652136106577 0 0 0
4327 14 1 10.315416457741014 22.654016311941454 39.29373460602301 0 0 0
1885 11 1 6.91962233399771 20.280457710081823 40.6916079142234 0 0 0
6416 31 1 4.081027548434909 4.75585096541528 52.722434271312636 0 0 0
4109 14 1 15.111370009398911 23.658325879020655 45.02554700437394 0 0 0
7761 62 1 2.7663652891635113 18.494587354398117 51.02192645952519 0 0 0
8274 1 1 0.7994098026384902 25.30269792386451 43.64176315216591 1 0 0
8277 1 1 2.915536453865542 25.21041052061233 46.8945787302651 0 0 0
5894 44 1 0.8920852107308925 25.917783789462728 53.619402073923624 0 0 0
666 6 1 0.32017335392155927 4.739856335322952 39.63620983074328 0 0 0
6188 48 1 0.7262014284983199 3.0533887492067433 44.017381199683065 0 0 0
2489 15 1 10.942287590900417 26.5838164414105 40.270620262853036 0 -1 1
1658 44 1 9.941468141489658 16.210148610603877 44.272990665209235 0 0 0
1659 44 1 10.65675315957881 16.823904229190113 45.51478794469492 0 0 0
1660 44 1 11.649614148929073 16.04687900752051 46.32439321164767 0 0 0
1661 51 1 4.859317187666877 18.93012561793302 43.82364542328296 0 0 0
1662 51 1 5.991984103118561 18.30877029035788 44.607812604596326 0 0 0
8278 1 1 4.08401168695387 26.069301385376775 47.38702996156752 0 0 0
737 8 1 18.245706980467716 7.02453954401557 53.279428182064905 0 0 0
6636 34 1 4.127286938429491 7.87755918417525 47.39598502948383 0 0 0
3564 24 1 17.94693958784398 15.658113757990442 43.24460570448191 0 0 0
3887 28 1 15.532060638207257 21.08407292196888 40.68693710413399 0 0 0
1431 48 1 2.2272363521923353 13.27725871215854 40.97579558850405 0 0 0
7759 62 1 1.0852892164309393 18.504727468089147 49.41783529956978 0 0 0
7099 55 1 8.978115103993915 12.126841255448193 53.1189805952485 0 0 0
1432 48 1 3.4678511209010896 14.08636589845058 41.42884514306942 0 0 0
7987 62 1 8.803892527706374 20.641968960259707 52.14889181949661 0 0 0
8205 63 1 5.6480594066789 22.54940027716681 54.385823086772184 0 0 0
2573 16 1 17.602723028640142 4.800266018926101 47.363767977821354 0 0 0
2796 50 1 16.6039653259499 6.542521192032177 41.8803685852194 0 0 0
2790 16 1 11.327426662159812 5.2592656652132215 41.02090826192476 0 0 0
2571 16 1 15.930586753534545 4.849762948429267 45.62112092178817 0 0 0
7988 62 1 9.458182510812911 21.45118785575291 53.2320285823266 0 0 0
3341 11 1 18.133350639050594 14.314522716203232 48.32824904672654 0 0 0
736 8 1 17.68870294757395 7.806083418666283 52.151924992357166 0 0 0
2501 58 1 18.321731037189203 2.556562143802956 44.74755185866498 0 0 0
1883 51 1 3.489881869013521 18.79256639427966 42.12667281506863 0 0 0
1884 51 1 4.438242815056167 17.901430173679383 42.87104725011689 0 0 0
2499 58 1 16.655380137650123 2.566624104797462 42.7981115108517 0 0 0
4328 14 1 11.251294902334523 22.08653284661805 40.27625360715686 0 0 0
1887 11 1 8.515519811628009 20.452280549193613 42.491054326351076 0 0 0
1888 11 1 9.168337180152312 21.356498098343906 43.407349256173546 0 0 0
1889 11 1 10.181775397038098 20.602524093991494 44.26209079435533 0 0 0
1890 11 1 11.0065840545627 21.416726179285835 45.199471730408256 0 0 0
1891 11 1 11.855019902815009 20.60666941617389 46.1586961276861 0 0 0
1892 11 1 12.703357496625602 21.407001271993163 47.2012138134869 0 0 0
231 60 1 14.542535567752306 3.3924311885910114 49.44705496489992 0 0 0
7308 36 1 2.9560271426227094 14.034272133749447 50.74670931849522 1 0 0
3340 11 1 17.8126505967568 13.720200847660857 46.99134035735506 0 0 0
7537 57 1 4.8497308899235865 16.005303969072532 48.37908626325932 0 0 0
1895 11 1 15.306179543601317 20.19740442050798 49.900614245103775 0 0 0
5969 46 1 3.0584853244222456 1.091916244786038 51.207901111600094 0 0 0
235 60 1 18.173889769815794 3.304970515155575 52.91572836437763 0 0 0
8204 63 1 5.090589016658342 23.293388839864186 53.18182364915649 0 0 0
7090 55 1 1.3868917079592493 11.202352937219409 44.980656127334356 0 0 0
727 7 1 5.835714194199685 7.334621228681522 39.2835049588384 0 0 1
2109 53 1 6.247292875691534 23.274349202721783 45.9713399108365 0 0 0
2110 53 1 7.401688162685513 22.437970320460543 46.423801328799705 0 0 0
2111 53 1 8.522984973344782 23.371391115769008 47.08664399268188 0 0 0
2112 53 1 9.008822358353866 22.69867169115151 48.39227160400195 0 0 0
2113 53 1 9.945330909168083 23.404949916477886 49.430891239511055 0 0 0
2114 53 1 11.146718948270916 22.635417749238677 49.9251495361898 0 0 0
2115 53 1 11.761882713757332 23.355091590527508 51.15536738471197 0 0 0
2116 53 1 13.11968352564956 22.794764940454254 51.685682144913535 0 0 0
1652 17 1 4.972780163494855 15.610157462966672 38.71067730197346 0 0 1
4107 14 1 13.199020231024663 23.23206452278627 43.23841625507557 0 0 0
6860 54 1 3.4162108834010736 10.187653296817857 51.576974664771605 1 0 0
1657 44 1 8.925736252653891 17.14040644677164 43.50903190913162 0 0 0
7536 57 1 4.116277402197236 16.88101777806919 47.33474173733174 0 0 0
7100 55 1 9.90308260647721 11.288912907561587 53.949711645471496 0 0 0
2497 58 1 15.214337142824446 2.4821918561628515 40.767235985729265 0 0 0
6862 54 1 4.907451562380951 10.294712124841055 53.75118857878097 0 0 0
2895 18 1 13.937057355838228 9.111214288419733 43.82488134312211 0 0 0
7763 62 1 4.573977028765181 18.343527436433586 52.817064956681136 0 0 0
2229 12 1 18.884215122028266 24.941213669434376 53.66017572303172 0 0 0
6411 31 1 0.38793443596627364 5.851727833442775 47.64234232343176 1 0 0
2143 53 1 4.084475639724881 22.405466106966866 42.8853961408256 0 0 0
2144 53 1 4.76041678693549 23.262447641170453 43.93983907806978 0 0 0
2145 53 1 5.613125512104296 22.448483531033258 44.88131471339804 0 0 0
2220 12 1 11.392047202934098 25.15153397432036 45.273752316637925 0 0 0
2221 12 1 11.784547777887697 24.62468069871532 46.56658168743607 0 0 0
2222 12 1 12.765546665146724 25.523751208502084 47.230866259239974 0 0 0
2223 12 1 13.720252069653112 24.867636146038276 48.25914403203949 0 0 0
2224 12 1 14.483827005262151 25.831388716774587 49.173700741239145 0 0 0
2225 12 1 15.426947848602852 24.990166161942465 50.0649136433511 0 0 0
2891 18 1 10.791172202174478 9.022973881779652 39.96186120833478 0 0 0
1219 48 1 12.315626202035055 13.655863789177703 52.054431465219665 0 0 0
2568 16 1 12.90264271249791 5.095052257359246 43.20832432677676 0 0 0
6417 31 1 5.027225886471496 5.531707385931959 53.67591528628866 0 0 0
1430 48 1 1.181332494747763 14.083888667196717 40.268117162591295 0 0 0
8275 1 1 1.5298679285160555 24.745352234120535 44.85201045308399 0 0 0
735 8 1 16.626264277539377 6.90294301373651 51.346035488088226 0 0 0
2117 53 1 13.570353523214647 23.643308260040598 52.86959782370687 0 0 0
2490 14 1 11.549390197761213 0.8081120768008224 41.337371246806505 0 0 0
2266 12 1 8.479185367013564 24.717829144580463 42.752121686396016 0 0 0
2267 12 1 9.719099195311964 25.206421294496717 43.54019330729482 0 0 0
2268 12 1 10.215323352332465 24.48361789159966 44.674892529914246 0 0 0
2269 14 1 14.148667989448079 0.0808176286593634 43.8013029993874 0 0 0
2270 14 1 14.759483448653738 0.6778150484231598 45.14156184363499 0 0 0
7986 62 1 7.867644004952151 21.494768381339913 51.38912391741646 0 0 0
1443 44 1 17.875069791858078 16.9178354111524 52.18761190222578 0 0 0
1653 17 1 5.620413022442583 16.49900588973322 39.77153219257997 0 0 1
2139 53 1 0.5231995062786209 22.306919269993355 39.62198418207966 0 0 0
1000 13 1 17.57017398736281 11.917781559413832 52.307841884643146 0 0 0
3791 25 1 15.833604785881688 17.774384091926954 45.617878300464945 0 0 0
4110 14 1 16.167072570454994 22.74250037079521 45.559854936548184 0 0 0
5971 46 1 4.541364390201615 1.4351137823579816 53.29812482616914 0 0 0
2896 18 1 14.621495483754751 9.986518042198849 44.81872468726346 0 0 0
3561 11 1 15.054054366152934 14.081600308410067 44.28956634505005 0 0 0
3783 23 1 13.479677440565906 16.721171961930587 38.8121604286971 0 0 1
2142 53 1 3.1683661360252318 23.217169923988553 42.09013400812847 0 0 0
993 13 1 11.990459010447676 12.509293847620855 46.573736933661024 0 0 0
2118 53 1 14.705801996618874 22.85686425441642 53.532501038129574 0 0 0
2569 16 1 14.075573767989379 4.392043179611515 43.91217474853249 0 0 0
2570 16 1 14.79481061693465 5.376480285476763 44.78841420999375 0 0 0
3339 11 1 16.48014118269988 14.250682829685047 46.42164555578526 0 0 0
4603 33 1 18.267354720785008 4.037041120650785 39.179324812569504 0 0 1
6634 34 1 2.4413694041645617 7.637980124741987 45.56580923552029 0 0 0
6197 48 1 8.452172258946591 2.970266558467809 52.343843923838165 0 0 0
7095 55 1 5.707729402362245 12.331462639544393 49.345628035714434 0 0 0
2218 7 1 5.275089080367676 24.475118268491627 38.830194278650964 0 0 1
669 6 1 3.5622347927026463 4.559680149142092 41.73110950712611 0 0 0
7535 57 1 3.534570301221301 15.957150606435707 46.3765173676847 0 0 0
7538 57 1 5.759853554823129 16.906775783433794 49.257621099319294 0 0 0
1897 11 1 17.279496857330454 20.240853401979166 51.361748548511315 0 0 0
3792 25 1 16.53835120612557 18.715629637902598 46.53283445663594 0 0 0
2892 18 1 11.662175095248196 9.795031083843861 40.980750338610456 0 0 0
2893 18 1 12.598936548277706 9.029298823781387 41.83369271903722 0 0 0
2894 18 1 13.147435171468524 9.975671757590773 42.90325716999726 0 0 0
7979 62 1 1.490821881404749 20.293268781595735 45.094633331940244 0 0 0
2272 14 1 16.333824659369643 0.9336347940473985 46.93497968332581 0 0 0
3559 22 1 12.785055882063718 14.521644181234722 43.097980703341534 0 0 1
760 8 1 6.117703391861533 6.665759169095248 40.65278310575024 0 0 0
2273 14 1 17.637075890482 0.4536822057171689 47.61448709004476 0 0 0
7764 62 1 5.3614158128544 19.13538905782533 53.941087573361116 0 0 0
7542 57 1 9.180751188300786 16.810461830992423 52.822212966985944 0 0 0
998 13 1 15.371592185108854 11.712147080965066 50.94123955452996 0 0 0
6639 34 1 6.290687802653138 7.34595229167736 50.49115260732073 0 0 0
1667 51 1 10.053471563472982 19.259467287203762 49.23168874345523 0 0 0
2789 16 1 10.619806565520918 4.489934941936272 39.95621722305161 0 0 0
3786 24 1 16.230831956796223 15.63630180138474 41.38436231087408 0 0 0
1442 44 1 16.925930504741768 15.936857284405823 51.5329551701149 0 0 0
1666 51 1 9.389856598658461 18.500007407917476 48.117957516372854 0 0 0
3889 28 1 17.190362388394995 20.8512933251628 42.67319403302066 0 0 0
5970 46 1 3.851398413530795 0.4755233920613562 52.36999003454119 0 0 0
994 13 1 12.141048991950575 11.36670366275441 47.6146200763849 0 0 0
2574 16 1 18.432601024179835 5.568043716682246 48.42536964380156 0 0 0
3890 28 1 17.622556468349572 19.97266600467748 43.71947596209911 0 0 0
6632 34 1 0.5781582692971262 7.527249640839055 43.98081605341736 1 0 0
1220 48 1 13.342785991545496 14.532374572146969 52.700015925355395 0 0 0
2795 50 1 15.645772534238516 7.347983038179697 40.93114931849602 0 0 0
8284 1 1 8.95741911259454 25.791498822524634 53.07921901345437 0 0 0
7094 55 1 5.048369596594685 11.598382181302217 48.16778835580275 0 0 0
3787 25 1 12.180769007151035 17.639823450233305 42.01529900699746 0 0 0
3788 25 1 12.826259483255793 18.39725335145057 43.08000451523738 0 0 0
3789 25 1 14.017426916866212 17.736226661692655 43.757116241709 0 0 0
3790 25 1 14.535825231481777 18.41300247930431 45.095045822864606 0 0 0
4417 30 1 15.818407437561262 25.195694998437805 40.95085308191609 0 0 1
4801 46 1 0.510687073972809 11.822197005188388 53.06780449960888 1 0 0
7543 57 1 10.169138274188247 16.181450654483402 53.63225547963668 0 0 0
773 6 1 12.461309069221603 9.048584994579345 51.8288966143259 0 0 0
6861 54 1 3.9533887320916934 9.542705857746766 52.77929433747947 0 0 0
3823 25 1 11.411921026101838 18.680739962108483 41.060929325938964 0 0 0
1222 48 1 15.201892712447124 14.687844062706231 54.55806082125222 0 0 0
4106 14 1 12.56172926008975 22.362688253949813 42.16747494110927 0 0 0
6641 34 1 7.698061672641211 7.220132785745657 52.588722649348654 0 0 0
1664 51 1 7.715365954952445 18.54086496190523 46.41952431239339 0 0 0
1441 44 1 15.829790426169966 16.710319886895057 50.80623317372776 0 0 0
3888 28 1 15.77787693098921 20.475359606391617 42.09449284669116 0 0 0
8 8 1 10.003303708015387 1.0541434882847005 49.42010830208506 0 0 0
8276 1 1 2.292807134214633 25.829145778235187 45.65394175026773 0 0 0
6 8 1 8.533969529207006 0.9789333261147695 47.53406755990161 0 0 0
6637 34 1 5.166044411114461 7.008486869217658 48.195542467577546 0 0 0
668 6 1 2.1170995967941724 4.307936334150006 41.35086892237472 0 0 0
3563 24 1 16.95812590779665 16.51486797079186 42.37489047023751 0 0 0
3822 25 1 10.579252909101081 17.949636359628983 39.9807990612217 0 0 0
1665 51 1 8.281722841153428 19.287595143616745 47.57369703935503 0 0 0
6199 48 1 9.750881805650751 2.7423159575110736 54.318657397373514 0 0 0
6635 34 1 3.6333002843531976 7.0437026023079 46.25824650040503 0 0 0
8282 1 1 7.222270547484216 25.783374407631186 51.19503553983361 0 0 0
2899 18 1 17.445453197297372 9.30161990196689 47.28193572842606 0 0 0
7541 57 1 8.268055819160487 15.87365734504992 52.149585519632055 0 0 0
8199 63 1 0.3692144457822385 22.831197719237803 49.23167510926633 1 0 0
8200 63 1 1.6800129976863198 23.422543692843174 49.76330355386595 0 0 0
7540 57 1 7.479749372828583 16.695211687355044 51.065478398737966 0 0 0
8281 1 1 6.33111861706075 25.065886705560082 50.290584435079175 0 0 0
1210 13 1 6.501997537356154 11.05415163409466 40.41878747078133 0 0 0
8202 63 1 3.369475935385964 23.541115379299516 51.355337155991606 0 0 0
7534 57 1 2.305460861839435 16.534203023855554 45.7475107847242 0 0 0
996 13 1 14.037665790223445 12.383538680018024 48.82746984824833 0 0 0
7533 57 1 1.6837379951504914 15.713059772692288 44.71261274800896 0 0 0
7092 55 1 3.2200262495896324 11.570470265922928 46.70445481193182 0 0 0
2219 7 1 6.369978031315144 25.20666342222569 39.732564571793894 0 0 1
11 8 1 12.786480259292933 0.3868392184738224 51.8060927507794 0 0 0
2274 14 1 18.10953281090474 1.331807298863038 48.74240799447161 0 0 0
8280 1 1 5.80850428355826 25.869411333238947 49.17188679928398 0 0 0
10 8 1 11.445649994912788 0.8110721816872193 51.37270933039645 0 0 0
3556 22 1 10.126602568399246 13.680247374477817 40.23841858733046 0 0 1
7985 62 1 6.807119097605416 20.799909565693707 50.543446223225544 0 0 0
445 60 1 5.959564753543126 3.1984287856626867 39.78763781124191 0 0 0
1663 51 1 6.532582987371068 19.242614800562592 45.67063458058776 0 0 0
7310 36 1 4.663303491357322 14.237340550389975 52.33267213355559 0 0 0
8203 63 1 3.8169008376634457 22.8476755370847 52.58386420669437 0 0 0
3117 21 1 18.11956129298444 11.465463065215769 42.84550968225709 0 0 0
221 8 1 0.7082184243620389 26.597711895355733 39.57733914644701 0 -1 0
13 8 1 14.59552419701368 0.7756249966031152 53.49858805202736 0 0 0
2567 16 1 12.565527777051717 4.579266075355644 41.78471900943572 0 0 0
775 6 1 14.264183227494645 9.047671960960274 53.59564647088576 0 0 0
7984 62 1 5.953065108208261 21.697770429525303 49.750622147392946 0 0 0
7989 62 1 10.466934213453344 20.62782572188907 54.05616358867235 0 0 0
7093 55 1 4.1383167365788385 12.569301361739853 47.437894685792294 0 0 0
7097 55 1 7.365631325746732 12.218508206709545 51.09358970351606 0 0 0
1208 13 1 4.606707944051269 11.064297221994067 38.73531702944944 0 0 0
2900 18 1 18.326156108389807 9.98433965943795 48.20280503964333 0 0 0
6414 31 1 2.4359088740519317 4.787057028355169 50.92154760468912 0 0 0
6640 34 1 7.601476326580373 7.752639362205563 51.20364531051463 0 0 0
2226 12 1 16.422142307594406 25.661598899036946 50.82330198439977 0 0 0
6642 34 1 8.799098055546528 8.008126575098123 53.048040806957246 0 0 0
7091 55 1 2.1865120347969818 12.188444182375726 45.84619541615941 0 0 0
1672 51 1 14.668692307893357 18.28200539560092 53.52689343448151 0 0 0
6415 31 1 3.3219581543900363 5.5627336634386335 51.711099043325355 0 0 0
7982 62 1 3.9762638766321716 21.59700037718059 47.926886536921906 0 0 0
7760 62 1 1.9535488503216796 19.4826861509492 50.12283128765289 0 0 0
12 8 1 13.181740680621123 1.1504797995422358 53.12172397869822 0 0 0
6195 48 1 6.700481865554648 2.9340285917105393 50.74740875863449 0 0 0
4418 30 1 16.866032147210042 24.60245333138548 41.723001052880086 0 0 1
7762 62 1 3.7549209104330834 19.20638616786079 51.9057380938725 0 0 0
2265 12 1 7.940776012375935 25.601223887806125 41.52708770394146 0 0 0
2572 16 1 16.636081506541068 5.7352668316100415 46.647048376319674 0 0 0
5140 39 1 1.403699549765964 17.067090626192368 54.04917574922196 1 0 0
6191 48 1 3.2317526358258304 2.616813349124199 47.04534000661443 0 0 0
6192 48 1 4.126388255965284 3.4252163693869697 47.88999138385157 0 0 0
6193 48 1 5.0020436902099314 2.64752269475145 48.87962185234149 0 0 0
6194 48 1 5.993496200605089 3.5041306188640653 49.533980136440775 0 0 0
7096 55 1 6.765971215733915 11.395543442825574 50.035306970568755 0 0 0
3560 11 1 13.694314638897518 13.478429677232619 43.851160111097855 0 0 0
6190 48 1 2.4263678103456336 3.1949756723838445 45.877044193046835 0 0 0
6638 34 1 6.2460087262107535 7.674578485227033 49.03821925085471 0 0 0
7098 55 1 8.124600773729773 11.364689791736263 52.12164044062837 0 0 0
6857 54 1 1.0447432682395448 9.107656562403815 48.79368277708653 1 0 0
7978 62 1 0.8259409126733119 21.098364922213147 44.00465409319776 0 0 0
6643 34 1 9.392822717051072 7.29720235238759 54.329892795814814 0 0 0
8279 1 1 4.834941129980965 25.14108017701303 48.383993523873066 0 0 0
4505 31 1 0.9143287127377184 3.5927127111563117 53.74860470164296 1 0 0
7311 36 1 5.244829408686229 14.654937166609864 53.681173930346986 0 0 0
774 6 1 13.400384354715916 9.804010510743405 52.74335158485081 0 0 0
458 6 1 13.60815596463627 4.900888233341039 54.08066078426648 0 0 0
2227 12 1 17.171758356045757 25.024186669513135 51.87752428375876 0 0 0
1429 20 1 0.5675469363552846 13.344235165603564 39.061784691019305 0 0 1
2108 11 1 6.098330009661716 21.076666494732436 39.65053359224173 0 0 0
6198 48 1 8.838638234025447 3.666334577585683 53.63102576267187 0 0 0
7 8 1 9.058358233330713 0.17824577756465335 48.6706291196433 0 0 0
1881 51 1 1.5331344920819168 18.687659815132424 40.49405470502299 0 0 0
4111 14 1 17.078633185069723 23.51221300938176 46.52911233817237 0 0 0
997 13 1 15.392556547216328 12.179313060589392 49.508023031303765 0 0 0
2141 53 1 2.51486307033332 22.23906771848489 41.15903945585767 0 0 0
2228 12 1 18.02402749769249 25.84595409138402 52.939267876112815 0 0 0
3115 21 1 16.111629074699074 11.047526836595901 41.153474778438735 0 0 0
2797 50 1 17.376849776727067 7.353422517762505 42.98698964522929 0 0 0
1880 51 1 0.7311432115270663 17.94622872841342 39.46803690037624 0 0 0
3793 25 1 17.317416273016427 18.09903816261731 47.64736056213752 0 0 0
234 60 1 17.153084739634863 2.519841553233448 52.09841399738818 0 0 0
3116 21 1 16.772480435581937 11.910869076033963 42.272275563004186 0 0 0
1898 11 1 18.100207536947206 21.024281225543827 52.26363137095683 0 0 0
8285 1 1 10.23268917457023 25.226025943099035 53.62563895627915 0 0 0
1899 11 1 18.868920525026024 20.189974389955786 53.39775850484284 0 0 0