LAMMPS data file via write_data, version 23 Jun 2022, timestep = 11112117

8487 atoms
2 atom types
8471 bonds
3 bond types
8455 angles
3 angle types
8439 dihedrals
3 dihedral types

0 36.89775039 xlo xhi
0 26.67072 ylo yhi
25.945551843448484 210.80605255650573 zlo zhi
0 5.8161138658413325 0 xy xz yz

Masses

1 14
2 15

Pair Coeffs # lj/cut/omp

1 0.0914 3.95
2 0.1947 3.75

Bond Coeffs # harmonic/omp

1 449.5 1.53
2 449.5 1.53
3 449.5 1.53

Angle Coeffs # harmonic/omp

1 62.0967 114
2 62.0967 114
3 62.0967 114

Dihedral Coeffs # opls/omp

1 1.411 -0.271 3.145 0
2 1.411 -0.271 3.145 0
3 1.411 -0.271 3.145 0

Atoms # molecular

1 3 1 6.749379898203774 0.24094553045945075 31.764902193633606 0 0 0
2 3 1 7.665999384324337 26.134867767141323 32.58791762962683 0 -1 0
3 3 1 8.141700982040986 0.11349434511990496 33.85594510137686 0 0 0
4 3 1 8.950231196791492 25.902391926590816 34.737332332175825 0 -1 0
5 3 1 9.641030702574927 0.012660616443220644 35.83927754871587 0 0 0
6 3 1 10.388375672846356 25.852474280334516 36.84478163829341 0 -1 0
7 3 1 11.364442614769786 26.56175397707447 37.85537692532363 0 -1 0
867 3 1 6.851164970210034 7.873464095936541 32.146932783659246 0 0 0
6622 51 1 1.535165262162283 2.1541159406448163 31.47763221744072 1 0 0
1658 16 1 14.089145832081305 19.86143010738753 35.004580383079045 0 0 0
2133 19 1 6.751150837736484 23.55835448505612 26.020593388060988 0 0 1
7305 16 1 4.8919764462276145 13.339493537892382 41.48356679435638 1 0 0
1161 13 1 3.7023014582277725 12.363576235028793 27.944133381619395 0 0 1
3419 29 1 12.00710044735117 13.144056987040043 26.88700547155485 0 0 1
7568 12 1 9.338881538837448 15.70606765231292 41.81734056994031 0 0 0
4014 52 1 13.205011099432255 21.115247384667278 27.554192704285818 0 0 1
2146 34 1 18.105452578165313 26.515259797387777 34.83954478842695 0 -1 0
5432 60 1 0.9066428423679498 15.33385911650167 41.8685542391096 1 0 0
7557 12 1 0.9675297994578117 14.553158659937807 30.581370117307998 1 0 0
2144 34 1 16.305949232322334 26.44270088432503 33.00555250802917 0 -1 0
222 3 1 4.52568873712238 25.958942272653886 28.741236339474813 0 -1 0
223 3 1 5.435731552774489 0.1313674375549025 29.632031378330403 0 0 0
224 3 1 6.252635286235937 25.983067720078182 30.64123570091778 0 -1 0
262 1 1 8.612164560989141 1.468497657169865 27.85649491740467 0 0 0
263 1 1 9.035845538290266 2.162033619587236 29.16934521783845 0 0 0
264 1 1 9.957877242393536 1.425381413711779 30.17436199207666 0 0 0
265 1 1 10.674972607504618 2.32173486040302 31.21733525256385 0 0 0
266 1 1 11.219472654768428 1.2909971961730222 32.278317781313234 0 0 0
267 1 1 12.153207586671286 2.0584686669818955 33.22110807139008 0 0 0
268 1 1 12.7284229703117 1.088916041601335 34.24628971418835 0 0 0
864 7 1 4.59089675293239 8.653238703523778 28.906644344787516 0 0 1
868 3 1 7.346237365132936 8.715388931111796 33.360872540429625 0 0 0
3131 27 1 17.66208510417727 10.835857733877562 28.163882462801283 0 0 0
1664 16 1 18.831267005234867 19.693786441810783 41.02872013167334 0 0 0
3501 9 1 13.942818798922055 16.752740193012734 29.453771202381745 0 0 0
1687 16 1 8.046774456509054 19.898796723314906 26.8818150752512 0 0 0
6625 51 1 4.2126327668561245 1.4102093756121463 34.394060862401545 0 0 0
7263 5 1 1.0523291830402022 10.257422872966153 30.308576721316502 0 0 0
1612 15 1 5.601634150060802 16.952141216378337 30.18259867506345 0 0 0
862 7 1 3.043308628506187 8.815806233329093 26.973019847240675 0 0 1
4021 15 1 16.3931662696075 24.711067504786712 26.34604930882507 0 0 0
306 5 1 12.54860144963745 4.273104023645636 39.68701019111642 0 0 0
307 5 1 13.38260358246098 3.3971932680839543 40.57597574106322 0 0 0
308 5 1 14.294869645183901 4.145298383077333 41.57771934197043 0 0 0
309 5 1 15.179785974444346 3.4140402363281113 42.57023636642794 0 0 0
5736 45 1 0.8704553911467421 20.604190358044963 42.06184450734116 1 0 0
2594 22 1 17.832499476413666 4.116559916918522 34.786811016553806 0 0 0
3117 25 1 11.54562701880625 8.575290957302672 26.6761164892472 0 0 1
221 3 1 3.9489983372138786 0.10765263395219005 27.645235653156796 0 0 0
3118 25 1 12.580675614817205 7.811213882067701 27.471704280498656 0 0 1
7606 57 1 1.9434605252980062 17.81460868067552 37.50051556302116 1 0 0
7831 60 1 3.4107050084918016 20.129605923861504 33.60773488413078 0 0 0
7607 57 1 2.8035431252518555 17.032393007615774 38.4959507496637 0 0 0
269 1 1 13.469543071546 1.9874163064534052 35.16596603057505 0 0 0
869 3 1 8.20699093688582 7.821685007984799 34.28656906288678 0 0 0
941 9 1 14.515649819482046 10.420753079684667 35.76799513923778 0 0 0
4357 49 1 0.6833572862316686 2.214258459245831 41.77799885398237 1 0 0
952 10 1 15.064514726530032 12.992150729700754 43.23189641083516 0 0 0
381 5 1 7.719888463790856 4.32056706819828 33.64696324511401 0 0 0
382 5 1 8.653935833861556 3.496818310049255 34.54023255752783 0 0 0
383 5 1 9.420866978107801 4.358851623635502 35.54092047594728 0 0 0
384 5 1 10.233048207394875 3.4630464055955508 36.51012001894277 0 0 0
385 5 1 10.930277589012544 4.326601231929561 37.62422855505701 0 0 0
386 5 1 11.652319558234286 3.423492099920662 38.70441443444558 0 0 0
424 21 1 15.433754903292298 6.444808207982607 36.44708296975895 0 0 0
425 21 1 15.806101163981234 5.900635619392007 37.84215268121641 0 0 0
426 21 1 16.999654208941955 6.610628075479795 38.46206863759724 0 0 0
427 21 1 17.436379118757266 5.957704967742702 39.7859527850168 0 0 0
1661 16 1 16.017187530404076 19.36942748790621 38.319337887233985 0 0 0
1613 15 1 6.354926999158534 17.83486716487104 31.156302379145984 0 0 0
380 5 1 6.954068522797246 3.5893326184659755 32.55352641326031 0 0 0
4016 34 1 14.68753941877259 21.17743666483274 29.5891571777302 0 0 0
3425 58 1 16.80478300891153 14.75958607816055 27.5130168845394 0 0 0
6955 41 1 3.5218465213213186 6.54104349730482 33.462523436230825 0 0 0
305 1 1 7.380855617770559 2.1534998901874998 27.265772383817087 0 0 0
3084 18 1 17.22970686826551 8.15658721573386 33.54047132092268 0 0 0
642 6 1 10.753650959351802 6.7295055008050735 30.61295505679288 0 0 1
1162 13 1 4.730107791147611 13.10551409847634 28.73476606380903 0 0 1
644 21 1 12.268946490701275 6.835989479938735 32.566967777621144 0 0 0
645 21 1 12.844665529390685 5.976947214374018 33.685089062612946 0 0 0
646 21 1 13.919459322912388 6.545999143685468 34.616415016660206 0 0 0
647 21 1 14.253347438072998 5.795237190443083 35.88227153779223 0 0 0
648 3 1 10.77701991608591 8.536984985652298 37.12018378130104 0 0 0
649 3 1 11.567021222732592 7.816993417678849 38.13341999139537 0 0 0
650 3 1 12.18586675031304 8.70761861788537 39.14583875410933 0 0 0
651 3 1 13.24110887965897 7.915568730139194 39.88314284972298 0 0 0
652 3 1 13.87732164351833 8.796286570822726 40.95551479586124 0 0 0
653 3 1 14.996828682369879 8.089654104698917 41.82903036790012 0 0 0
6843 51 1 0.4403728442753361 4.293932318936483 35.48850944669303 1 0 0
4023 15 1 17.935521848849216 24.49094147234805 28.358041237744963 0 0 0
2366 21 1 16.271273443615886 2.0174756712513155 26.639020243662646 0 0 0
641 6 1 10.17298834112147 5.761325090403407 29.64006217700001 0 0 1
270 1 1 14.223853827965991 1.1939748345594103 36.21678967627881 0 0 0
1609 14 1 3.1061916279883635 17.659382494987135 27.377041034485224 0 0 1
1693 64 1 6.26822720664986 21.945824291369455 31.335801684345405 0 0 0
6993 53 1 3.7685580889070764 8.752824983694968 39.348079934159394 1 0 0
1660 16 1 15.6006435587439 19.9604419152142 37.02006476893487 0 0 0
1924 63 1 18.46360378467123 24.191793447967196 41.198609658775126 0 0 0
865 3 1 5.7547553427366465 7.98449581508716 29.684750016056626 0 0 0
4358 49 1 1.0525806726072773 1.6249264051589272 43.152302451232075 0 0 0
1610 14 1 3.937633998353552 16.888819689337463 28.360075178124337 0 0 1
1692 64 1 5.447732275884352 21.20874430924273 30.255699615102326 0 0 0
13 3 1 15.996911804841497 26.49908594911111 43.8456170873942 0 -1 0
870 3 1 9.18073177072475 8.632866808466767 35.174509010859964 0 0 0
871 3 1 10.059985815804586 7.775734870582321 36.087911962965485 0 0 0
8294 62 1 11.775021334185993 23.853975883673574 44.27732278664918 0 0 0
3119 25 1 13.172254411549442 8.668260668060155 28.622351898677103 0 0 1
4022 15 1 16.850131574320127 23.834092459150114 27.514454482710722 0 0 0
6997 53 1 6.318901065708817 8.77297949216815 43.671185703343845 1 0 0
7302 16 1 2.113139475644467 12.564790526044112 38.75646902013592 1 0 0
6990 52 1 1.2589020231263446 8.050164247017392 36.5047132854179 1 0 1
1915 64 1 4.819667670895803 22.104840592911955 29.13944068228036 0 0 0
3797 34 1 18.40873729620328 22.09838836064938 34.608139731673774 0 0 0
422 54 1 5.377938502657514 3.540001249503413 30.531989240080303 0 0 1
8051 45 1 1.3576324389675585 21.518264753226273 36.26288713189387 1 0 0
2363 34 1 12.718121039725377 25.43051983689161 27.881339370243612 0 -1 0
7567 12 1 8.598846619126897 14.952547179273793 40.68725023825885 0 0 0
7271 5 1 7.213036899110978 10.513757689789257 38.263938708781104 0 0 0
1912 64 1 2.616342000616822 20.983759087150634 26.066588652754916 0 0 0
942 9 1 14.652837319764737 10.982444309931783 37.160093009212034 0 0 0
943 9 1 16.128684483148668 10.956042851327396 37.51738136310682 0 0 0
944 9 1 16.52891351260013 11.37513384638834 38.8982965888025 0 0 0
945 9 1 17.606200653755085 10.475054845382052 39.518838001488135 0 0 0
946 10 1 10.366493575069308 13.54691575175326 37.189818953725876 0 0 0
947 10 1 11.08251860396045 12.716179469227022 38.27061268599555 0 0 0
948 10 1 11.968121348916695 13.456002791985005 39.253616832409335 0 0 0
949 10 1 12.940938768051389 12.588867875532822 39.96910278180315 0 0 0
950 10 1 13.68309519753009 13.296164087914521 41.073878606281816 0 0 0
6407 62 1 4.467255232488484 26.283423864053848 40.47101944263106 0 -1 0
7556 12 1 0.46891550903899537 15.2089379379773 29.27692244372743 1 0 0
4015 34 1 13.449241846381058 21.748642552344805 28.90729283854307 0 0 0
8054 45 1 3.4247637225767065 22.438877795472017 39.43413927618854 1 0 0
271 1 1 15.018580779516272 2.0796514338345053 37.14709384359447 0 0 0
4017 34 1 15.133263093726379 21.898730614403554 30.83147442167998 0 0 0
2593 22 1 17.38294240286627 3.4111935916873755 33.45292944282107 0 0 0
7563 12 1 5.425502241012938 14.792470604310793 36.82831637299239 0 0 0
6996 53 1 6.148799855602017 8.17163014167369 42.247157328667925 1 0 0
3349 28 1 17.52813424193023 12.314509810302264 33.59550802564785 0 0 0
5738 45 1 2.2052066266577737 20.424093763274957 44.131956313872195 1 0 0
900 8 1 7.461912930495456 11.105181576913386 26.649115450150568 0 0 1
1164 10 1 6.12523117509258 13.349417079242112 30.845800579029444 0 0 0
1165 10 1 6.87602055905318 12.539332657809283 31.86375702098994 0 0 0
1166 10 1 7.651679303479189 13.416927432076562 32.82539770180179 0 0 0
1167 10 1 8.206477847859793 12.657021012364124 34.04411940791441 0 0 0
1168 10 1 8.908958854502826 13.478657017191653 35.18706332896713 0 0 0
1169 10 1 9.53498260178124 12.65271528357804 36.2821891191023 0 0 0
1170 12 1 12.105126753619183 15.368277551493783 33.19572803656112 0 0 0
1171 12 1 13.206321316304827 14.622933205496564 34.01460058935467 0 0 0
1172 12 1 13.930448821155835 15.623363021082678 34.92785816736419 0 0 0
1173 12 1 14.611584085032478 14.820943082950905 36.017925295664185 0 0 0
1174 12 1 15.730455292880677 15.604508585841398 36.77133082726694 0 0 0
863 7 1 4.284071370981937 8.169698387170289 27.458395829697796 0 0 1
7558 12 1 2.1442241812692386 15.222214163041137 31.243636880614734 1 0 0
7829 60 1 2.0829243604656744 20.02844842505012 31.365082005083828 0 0 0
6634 51 1 10.74317719898945 2.255463262443627 43.773255967518224 0 0 0
1703 64 1 14.434719823752008 21.97285968340057 41.12178474329109 0 0 0
951 10 1 14.491696405008486 12.405937298570494 41.93044563116511 0 0 0
7838 60 1 8.57421242357806 19.490958954759265 40.735547905350494 0 0 0
2591 22 1 15.705360457744652 3.505352508256156 31.680009404928974 0 0 0
1163 10 1 5.362909868001788 12.342988661160259 29.945630576182378 0 0 0
1390 12 1 8.763807725684863 15.380479260714477 29.286960240571002 0 0 0
1391 12 1 9.985476327800544 14.666838908466339 29.94706539250269 0 0 0
1392 12 1 10.442553195223903 15.333582582335787 31.22576069742725 0 0 0
1393 12 1 11.748924671012634 14.725376832551646 31.87353073248515 0 0 0
1394 15 1 10.301509396495426 16.881045862001937 36.04766523144235 0 0 0
1395 15 1 10.699917925745439 17.409133822885707 37.46006104456592 0 0 0
1396 15 1 11.936605701786316 16.852047124257634 38.12490076890387 0 0 0
1397 15 1 12.272297813090868 17.503918285089323 39.48006598203328 0 0 0
1398 15 1 13.456524336908036 16.902862946383312 40.28979408140645 0 0 0
1399 15 1 14.066600743292275 17.78087577839158 41.293252482700325 0 0 0
3785 20 1 16.423504905570375 19.940428477791453 26.19312735535546 0 0 1
2134 19 1 7.36464912141657 24.29029049206642 27.19880672239132 0 0 1
639 6 1 8.124540348347322 5.677024426299125 28.114823728083696 0 0 1
4805 27 1 1.19794246233701 6.375405049337271 41.34636137371591 0 0 0
5737 45 1 1.4038108736771457 19.675947071002923 43.12855602511341 1 0 0
3130 27 1 16.54249471232912 10.018505895242438 27.49902216894449 0 0 0
1702 64 1 13.11252229931474 21.564010791884925 40.56402765417506 0 0 0
7608 57 1 3.3386765077772864 17.96795003379929 39.617646831206955 0 0 0
7566 12 1 7.940297212159808 15.824474279664711 39.61357537061959 0 0 0
1177 12 1 17.595607673057096 14.583339358680227 40.103688692008994 0 0 0
1659 16 1 14.432233327791836 19.246979596346797 36.40300362898889 0 0 0
272 1 1 16.190088760689232 1.4256338547544052 37.85607396858269 0 0 0
6849 51 1 5.1552283516579145 4.3597773672958064 41.56340297532295 0 0 0
5434 60 1 2.405255868959152 15.366942913798288 43.90975990856563 1 0 0
1615 15 1 7.759559691712715 17.907556963892894 33.29647623639307 0 0 0
1616 15 1 8.594943091805916 17.038725090069256 34.23515874703608 0 0 0
1617 15 1 9.418632998556422 17.801392279538042 35.214430103684805 0 0 0
1655 16 1 11.449722364813772 19.114306895691627 32.193864504556466 0 0 0
1656 16 1 12.50743687512076 19.892812588327498 32.8732054781625 0 0 0
274 1 1 17.87771218575567 1.3033793054670668 39.925869880111975 0 0 0
640 6 1 9.222089836991367 6.493454604665856 28.715171774582632 0 0 1
655 3 1 16.340807655178146 8.163444284950048 43.922778241051205 0 0 0
2135 63 1 8.658663711443067 23.578129850535788 27.70831267076188 0 0 0
1657 16 1 12.799435573971044 19.285888959953397 34.29256326673726 0 0 0
6952 41 1 1.000508769595891 5.7710002339592315 30.58447685643263 1 0 0
275 1 1 18.291992618688226 2.2210480572569096 41.04965050818275 0 0 0
902 8 1 8.694167028814636 10.993058683981982 28.864314475971714 0 0 1
7570 12 1 10.994180298503156 15.646292989591686 43.659065965769344 0 0 0
7565 12 1 7.028672438268743 14.947036502277193 38.721011846144414 0 0 0
9 3 1 12.803252307168677 26.60017825563634 39.87784619568575 0 -1 0
643 21 1 11.077847627745319 6.163306970659707 31.9739254562654 0 0 0
1688 16 1 8.78594247233179 19.07822647380722 27.966240490545538 0 0 0
1689 16 1 9.633361594577506 19.909697918981763 28.921257329075466 0 0 0
1690 16 1 9.910350553718594 19.159337111041797 30.18606784487527 0 0 0
1691 16 1 10.859236012230898 19.973118227601365 31.102252470115488 0 0 0
2362 34 1 11.554559796601264 26.084951407482798 27.115890580708232 0 -1 0
6991 52 1 2.2032424109996374 8.887913174281625 37.2269204422182 1 0 1
1694 64 1 7.176578119006066 21.149630422798534 32.30503400172229 0 0 0
1695 64 1 7.76999112523513 22.136854046787906 33.271025570974885 0 0 0
1696 64 1 8.623761450788274 21.41177304384467 34.3196910547539 0 0 0
1697 64 1 9.561762561291372 22.318818701091082 35.11840015791731 0 0 0
1698 64 1 10.124141654693974 21.547271659604654 36.323139577475885 0 0 0
1699 64 1 11.10550939675967 22.34745813204655 37.14085670033051 0 0 0
1700 64 1 11.352584912989965 21.798704922658153 38.56580078583521 0 0 0
1701 64 1 12.775519930872344 22.126985769487185 39.115631437640516 0 0 0
7301 16 1 1.8194235086578634 13.240626291482545 37.407700393876155 1 0 0
7605 57 1 1.4000143555382976 16.98247237775076 36.21330407185749 1 0 0
1662 16 1 17.24801637586282 19.868633864170796 38.99352018609308 0 0 0
1914 64 1 4.124966246378068 21.203509538848756 28.083848493281465 0 0 0
7609 57 1 4.0533860343220525 17.13770659246632 40.700314876611216 0 0 0
6632 51 1 9.263677592273666 2.2822527419059737 41.672518827476296 0 0 0
7303 16 1 3.133260449456838 13.434026752287782 39.5100980858754 1 0 0
7830 60 1 2.5484156471556494 19.330828005120427 32.6349847589854 0 0 0
901 8 1 8.02986233458143 10.23160839894983 27.71260503316068 0 0 1
3426 58 1 17.979077310873176 15.462586343872657 28.32038605685679 0 0 0
1611 15 1 4.752507265331129 17.75744859573932 29.296640704242392 0 0 0
1705 64 1 16.237852995084545 21.771678316006433 43.0328792331807 0 0 0
8293 62 1 10.88810819894007 24.690963536619222 43.37894432861844 0 0 0
1916 63 1 11.992899633940878 24.146391836592915 33.14938484329555 0 0 0
1917 63 1 13.43022002982213 23.95967263254988 33.73234754532134 0 0 0
1918 63 1 13.5608665719056 24.21759263647354 35.231930442268634 0 0 0
1919 63 1 15.04078162024605 24.160474058559817 35.72415518330326 0 0 0
1920 63 1 15.248135471675246 24.274172800748428 37.250444072652186 0 0 0
8286 62 1 5.80549340802511 23.839908399963143 36.26155784458889 0 0 0
3129 27 1 15.79821990524465 10.889437553812565 26.4516044150083 0 0 0
8 3 1 11.95818156119805 25.728169443985895 38.972343684484294 0 -1 0
7300 16 1 0.7965632525975501 12.681487706779293 36.45430961972977 1 0 0
3503 9 1 15.547987763585628 16.72133411612687 31.55189790473983 0 0 0
1608 14 1 2.4388500362894914 16.746803711077327 26.28603247509143 0 0 1
1921 63 1 16.707644366820144 24.124862066969772 37.66477864911497 0 0 0
8282 62 1 2.769939977718913 23.67978062803754 32.19284002315424 0 0 0
3120 25 1 14.125576145458865 7.914772988325254 29.617941968463388 0 0 1
2136 63 1 8.858864486135573 23.971707936538635 29.15496212976086 0 0 0
2137 63 1 10.14814747237173 23.532875105674254 29.83191640382644 0 0 0
2138 63 1 10.412598226149209 24.07432616437592 31.28076106241838 0 0 0
2139 63 1 11.602059420435374 23.358303577402374 31.95618733000219 0 0 0
3788 20 1 18.555221065722087 19.179761432720554 29.386642650063585 0 0 1
6193 49 1 1.6033287927591826 23.893074154062187 43.054852357789215 0 0 0
6404 62 1 1.5482937537283568 26.343529304191144 37.842880345985996 1 -1 0
2145 34 1 17.387521378754965 25.653803370174007 33.74584666145988 0 -1 0
8287 62 1 6.284449286453445 24.681710911945203 37.39291562663127 0 0 0
6850 51 1 5.757834232776527 3.6179016766072767 42.723661316662785 0 0 0
637 6 1 6.515966066367123 5.821598413379936 26.121254129167607 0 0 1
1389 12 1 8.349791487507012 14.705197489285052 27.95848735602396 0 0 0
1922 63 1 16.95065955780543 24.264920146520588 39.17187921544322 0 0 0
8289 62 1 7.789487060932144 24.693724951991026 39.435087524817945 0 0 0
906 8 1 11.615377565010313 10.833785779601905 33.06627547823376 0 0 1
7610 57 1 4.87066019371013 18.06329306325841 41.62569474301871 0 0 0
4806 27 1 1.433529791924684 6.012398919162962 42.826248562859206 0 0 0
8288 62 1 7.457521315631397 23.98577153490327 38.09332923921378 0 0 0
2588 22 1 13.103038888055936 4.139847728727478 28.800805196245186 0 0 0
2589 22 1 14.056273336944324 3.4460552138157237 29.809612316917786 0 0 0
7827 60 1 0.38411859982461016 19.84120195019096 29.464057118312304 0 0 0
7274 5 1 9.38777317542927 11.45787735192491 41.39858001075652 0 0 0
1175 12 1 16.135345045774315 14.884713155514191 38.067553256404835 0 0 0
7562 12 1 4.746548381546926 15.55562529793546 35.698860109718865 0 0 0
7833 60 1 4.960057491979306 20.084974245548572 35.668552338853154 0 0 0
6405 62 1 2.9257912739877607 26.22222276666683 38.348931255940236 0 -1 0
3350 28 1 18.203238460684865 13.119742851259911 34.600568881856375 0 0 0
2811 22 1 12.340047733862148 3.3467101942967195 27.809161362377328 0 0 0
1400 15 1 14.873838449058635 16.914654789547217 42.283427586727896 0 0 0
7828 60 1 1.2869826409796508 19.132617640945547 30.42902165629139 0 0 0
7611 57 1 5.430239491347178 17.324604791520294 42.817956441410054 0 0 0
1160 13 1 3.143818980938434 13.250138163567062 26.8445865305168 0 0 1
2368 21 1 17.696613252366124 1.662586502082099 28.776998837777583 0 0 0
3424 58 1 16.538157029548877 15.293420620777432 26.109783070957267 0 0 0
6406 62 1 3.0855795162558026 26.547467228591042 39.86532732117668 0 -1 0
8057 45 1 6.108859612375687 21.621992238462827 42.30257165643607 0 0 0
7569 12 1 10.090886995600165 14.798683987632867 42.786534300371954 0 0 0
8058 45 1 6.866477958512361 22.335088868089855 43.4678596289623 0 0 0
6623 51 1 2.802357860250919 1.6305746470905798 32.154220061695916 1 0 0
7559 12 1 2.7074873622083606 14.600892170503075 32.524441403072615 0 0 0
3085 18 1 17.796626868325543 8.882251918922579 34.70118621100686 0 0 0
8052 45 1 1.910451941524801 22.38736868113143 37.34544626521984 1 0 0
5093 33 1 0.6228232096519271 10.882964881449983 42.090427209861865 1 0 0
7832 60 1 4.114882907910583 19.34427681134912 34.669977470134015 0 0 0
7276 5 1 10.832644912078786 11.3597930408686 43.30132485935769 0 0 0
1704 64 1 14.761550905622812 21.53397186881288 42.53527113829108 0 0 0
3348 28 1 16.80114272166478 13.190540090104793 32.569900618548075 0 0 0
420 54 1 3.826901007918046 3.5785425365781642 28.34510260126886 0 0 1
421 54 1 4.688815995046453 4.330003334724848 29.374458271916325 0 0 1
7277 5 1 11.901917700872634 10.581070108448822 44.068609813336494 0 0 0
6845 51 1 1.93186950760002 4.15203180907216 37.55152159129983 1 0 0
6621 51 1 1.3221945022701944 1.479664658301797 30.123363500984194 1 0 0
3132 27 1 18.19183622748534 10.00839594419242 29.286098573458332 0 0 0
7275 5 1 10.480324741066845 10.671580530345729 42.036202144148724 0 0 0
3383 28 1 15.39392725298952 13.33078667566616 30.69319452825684 0 0 0
3384 28 1 16.01732408724662 12.323362761615885 31.66788091480221 0 0 0
418 54 1 2.212931779504854 3.68844867281881 26.428135088545226 1 0 1
7270 5 1 6.061368049909102 11.198709477342302 37.661882291071564 0 0 0
7272 5 1 7.571387025748028 10.958366604803265 39.71831975679125 0 0 0
2140 34 1 13.192784530584591 26.215171293508043 29.0984792914791 0 -1 0
1179 12 1 18.94558994232238 14.228928612629714 42.17420506750695 0 0 0
6846 51 1 2.5008250936537486 3.383402889298912 38.74678228036699 1 0 0
6966 41 1 12.585184187008922 6.029341735986146 43.965403556043086 0 0 0
3499 9 1 12.426918392202344 16.811288778191532 27.47663870275319 0 0 0
423 54 1 6.0660083506317095 4.368240381558198 31.546405051333792 0 0 1
7306 16 1 5.4594143761747205 12.482558244621158 42.57055219769853 1 0 0
953 10 1 16.08095294537739 12.238195121233142 44.13948940020773 0 0 0
6954 41 1 2.3037423258980048 5.812324263693204 32.86231276985333 0 0 0
2141 34 1 14.485585336792283 25.736389937876556 29.715700314405737 0 -1 0
6995 53 1 4.851377592950662 8.639171297136867 41.537330792506246 1 0 0
7273 5 1 8.98180304760073 10.621448699546304 40.202680296549296 0 0 0
7269 5 1 5.867345289191467 10.731809821877613 36.286625034057735 0 0 0
3421 29 1 13.617062456065566 13.36830657598714 28.776104781043323 0 0 1
3123 25 1 16.343441379596186 8.887980203740065 32.53396552978896 0 0 1
3794 34 1 16.238363620339047 21.167426721806265 31.615894516007636 0 0 0
3795 34 1 16.832832738743317 21.92338141302313 32.74786494803227 0 0 0
7299 16 1 0.4045070038559948 13.49389828989336 35.298173223789 1 0 0
638 6 1 7.755636485020159 6.346645875157739 26.78507197571838 0 0 1
11 3 1 14.427678984381847 26.564669360574005 41.853707446124886 0 -1 0
7561 12 1 3.865296106766915 14.746737733737845 34.737582854077694 0 0 0
7268 5 1 4.494252385557829 11.076158815911292 35.653384601383145 0 0 0
6965 41 1 11.474867841555549 6.724663153893827 43.18717365408233 0 0 0
273 1 1 16.662119834108154 1.8987789022741008 39.20731879880498 0 0 0
904 8 1 10.16630973286497 10.994766598470123 30.90771450849263 0 0 1
3034 23 1 17.514039324930764 6.139555912274323 28.785019173720123 0 0 1
3498 9 1 11.64224234258742 17.571844736711242 26.378242462489833 0 0 0
2143 34 1 15.922868694591369 25.72546300913458 31.729558097242656 0 -1 0
6992 53 1 3.059259880310494 8.027663826356164 38.178770053911194 1 0 0
905 8 1 11.37775533991558 10.384528034710147 31.626548697783498 0 0 1
8283 62 1 3.255506638126791 24.44299817529415 33.43288342152897 0 0 0
1176 12 1 17.098490123421765 15.558242850083174 39.01729263879557 0 0 0
3786 20 1 16.850475795347112 19.239806175061393 27.458032419110797 0 0 1
8292 62 1 10.356782205548802 23.819301736981465 42.19311517888998 0 0 0
7267 5 1 4.329957864769426 10.558859446546274 34.200382531191636 0 0 0
8291 62 1 9.231299283501725 24.606969292479775 41.51776826067369 0 0 0
3502 9 1 14.479989654432758 17.486532607329973 30.683799223669777 0 0 0
7837 60 1 8.422784632261838 19.62553599985123 39.199401816203114 0 0 0
10 3 1 13.630052919311256 25.77295604417821 40.80009999631484 0 -1 0
909 9 1 17.865586652080445 10.66397109981273 40.95555037114631 0 0 0
1401 15 1 15.47451061809265 17.714010522287687 43.379843074266645 0 0 0
5433 60 1 1.2003501931706806 14.744341860074188 43.29122732469326 1 0 0
7836 60 1 7.002219493078337 19.44171466056012 38.77783394039748 0 0 0
8285 62 1 4.924188590928934 24.593029625754518 35.29799541330294 0 0 0
8053 45 1 2.8799646581449623 21.614187424926186 38.28931831635774 1 0 0
903 8 1 9.679413029584548 10.15422062210834 29.738254180310463 0 0 1
2810 22 1 11.689519323347907 4.123280033767207 26.64693010197164 0 0 0
6403 62 1 1.2081931900352032 25.948350990618454 36.42740288717501 1 -1 0
7840 60 1 10.068574082731448 19.139721799123862 42.82144087393549 0 0 0
654 3 1 15.356594602205 8.917318294075278 43.02696507575832 0 0 0
7564 12 1 6.502261398221128 15.638227765534909 37.45811991746977 0 0 0
2590 22 1 15.064493501403481 4.316396361825677 30.59664285775236 0 0 0
3121 25 1 14.817359351375767 8.850426050007641 30.549086113376795 0 0 1
6851 51 1 6.743268149719168 4.473354814874979 43.58476539921219 0 0 0
6994 53 1 4.622321113240838 7.933327452332866 40.23621101170441 1 0 0
6633 51 1 10.380382993060973 1.6838694835674104 42.411194295673724 0 0 0
7266 5 1 3.062095078526534 11.113061931661417 33.55966444271642 0 0 0
7835 60 1 6.862818199899698 19.486713282139082 37.28087941217726 0 0 0
1159 13 1 1.8496973561921646 12.652479997901757 26.2916344847079 0 0 1
8284 62 1 4.306627709058631 23.72990284265503 34.18990042567851 0 0 0
6408 62 1 4.563607207858132 26.591926566299566 41.92248474478458 0 -1 0
220 3 1 2.5955498670213144 26.299706851743643 27.055480143656645 0 -1 0
4359 49 1 2.249329172825192 2.2173080188427194 43.825861244022484 0 0 0
6409 62 1 5.754876040917002 25.87369725441368 42.57294964954505 0 -1 0
1913 64 1 3.3995748848897063 21.89944193981779 26.998258417913945 0 0 0
3504 9 1 16.02323644476685 17.630829041852397 32.710063254938404 0 0 0
8290 62 1 8.718769094949062 23.836409215102808 40.304839620793345 0 0 0
907 8 1 12.829538438046677 10.202009136863134 33.79479905058662 0 0 1
6626 51 1 4.382934475530662 2.102977647236826 35.72297252772526 0 0 0
12 3 1 15.470775538551665 25.73838652100032 42.61702305364224 0 -1 0
7304 16 1 3.821603876668117 12.66046601149003 40.657915641794844 1 0 0
3032 23 1 16.049905570786645 6.206035145550903 26.68619619711062 0 0 1
1663 16 1 17.651627301696024 19.1168992482561 40.249010153345196 0 0 0
3420 29 1 12.668737572508464 12.404843342269059 27.998789108575952 0 0 1
6627 51 1 5.778743733198962 1.7715634109621266 36.08069169893607 0 0 0
6628 51 1 6.22226943028778 2.3298761154486565 37.49036378538791 0 0 0
6629 51 1 7.5572821663699346 1.8629550832653943 38.09969374849281 0 0 0
6630 51 1 7.764517388327387 2.2329750087689497 39.5607002065647 0 0 0
6631 51 1 8.991061364382995 1.7073412988031773 40.30659723576895 0 0 0
1923 63 1 18.377760186713704 24.14832135902121 39.673357077773204 0 0 0
7264 5 1 1.4781249173488513 11.1100926005941 31.48509993955757 0 0 0
6953 41 1 1.7186181268672784 6.581806543304525 31.704738261866524 1 0 0
3796 34 1 17.927132607585385 21.151096343552503 33.498471990186715 0 0 0
7307 16 1 6.457436808064408 13.263045427477847 43.3966405551342 1 0 0
3505 9 1 17.27216163826831 17.014553587644833 33.38900937699213 0 0 0
6410 62 1 6.191617086501304 26.557373088834566 43.823142304922825 0 -1 0
7265 5 1 2.680295018623323 10.54395781374722 32.2014499564437 0 0 0
7560 12 1 3.664268305441584 15.425772246769668 33.43015218465805 0 0 0
1614 15 1 7.065504845946436 17.06009817619619 32.29992696040756 0 0 0
2142 34 1 14.764811998504312 26.399206663803298 31.043554078564476 0 -1 0
8056 45 1 5.041835263736196 22.434369480555393 41.525704727868245 0 0 0
7612 57 1 6.430636403257272 18.04482526884012 43.67395033007473 0 0 0
3382 28 1 14.11038084199253 12.690631972455497 30.025315220679342 0 0 0
6848 51 1 4.104505135291271 3.458009321785818 40.842749740819805 0 0 0
3500 9 1 13.227544045041238 17.70126954177051 28.508139952626934 0 0 0
2367 21 1 17.472730424060675 1.3991360451293509 27.287423983065207 0 0 0
6624 51 1 3.015664943373134 2.105881324406469 33.642359025578216 1 0 0
1388 11 1 7.547872331450685 15.582916279626557 26.97547871339799 0 0 1
8281 62 1 1.6420564385564134 24.377911144300167 31.513276392217797 0 0 0
5094 33 1 1.3740119018507855 9.9895990138874 43.06999625313075 1 0 0
3122 25 1 15.752460325209533 8.028505239440976 31.426234600493558 0 0 1
866 3 1 5.925293234150145 8.659849740913355 31.08153300849245 0 0 0
7834 60 1 5.519360262913 19.093862140634457 36.70107160422772 0 0 0
6847 51 1 3.436707361310648 4.221039601489134 39.598962463662495 1 0 0
419 54 1 3.064598643075627 4.481910383649583 27.4360688425045 1 0 1
908 8 1 13.184310192110935 10.828010205441302 35.14684901426115 0 0 1
6956 41 1 3.7872136651361483 6.080576629594623 34.862937939293204 0 0 0
6957 41 1 4.857238969455678 6.833886408697064 35.60441504259434 0 0 0
6958 41 1 5.529371480324014 6.074326272589665 36.72288308310101 0 0 0
6959 41 1 6.689132131780284 6.827598808709461 37.40516016344776 0 0 0
6960 41 1 7.310329276156087 6.094055941918456 38.636158868207204 0 0 0
6961 41 1 8.21564567346126 6.800467348044114 39.61156455246748 0 0 0
6962 41 1 8.872826384221145 5.80350646884686 40.54021844599611 0 0 0