LAMMPS data file via write_data, version 23 Jun 2022, timestep = 11111117

9706 atoms
2 atom types
9690 bonds
3 bond types
9674 angles
3 angle types
9658 dihedrals
3 dihedral types

0 36.89775039 xlo xhi
0 26.67072 ylo yhi
16.08424460135977 220.66735979868008 zlo zhi
0 6.43663026133688 0 xy xz yz

Masses

1 14
2 15

Pair Coeffs # lj/cut/omp

1 0.0914 3.95
2 0.1947 3.75

Bond Coeffs # harmonic/omp

1 449.5 1.53
2 449.5 1.53
3 449.5 1.53

Angle Coeffs # harmonic/omp

1 62.0967 114
2 62.0967 114
3 62.0967 114

Dihedral Coeffs # opls/omp

1 1.411 -0.271 3.145 0
2 1.411 -0.271 3.145 0
3 1.411 -0.271 3.145 0

Atoms # molecular

1 2 1 10.318758359069156 0.5955746420848168 26.814814296134855 0 0 0
2 2 1 11.375978389717215 1.186254772910957 27.737410749007346 0 0 0
3 2 1 11.790973437814252 0.35904177227413336 28.9672452440024 0 0 0
4 2 1 12.862945713700283 1.1957560329002772 29.63935908027355 0 0 0
5 2 1 13.227608632389924 0.5449485131487681 30.970562142868793 0 0 0
6 2 1 14.604662030917247 1.0144396338672035 31.59257080810386 0 0 0
7 2 1 14.995635867528105 0.1975951630937656 32.80053479087573 0 0 0
8 2 1 15.920905953336701 1.033898628614602 33.72818684466458 0 0 0
2285 56 1 7.0271344055590825 25.048586726009248 16.55111839541752 0 0 1
7898 31 1 0.43141089715627945 8.248738629826594 20.31786541404898 1 0 0
5415 34 1 3.033388908350244 7.380594790265858 34.559854664845815 1 0 0
8433 2 1 12.35145859080903 11.677110907920897 34.999932422020706 0 0 0
218 2 1 5.082418428685589 1.850129003209177 19.794918465569207 0 0 0
219 2 1 5.566736845876503 0.850648845041013 20.80363030379482 0 0 0
220 2 1 6.5788592032526765 1.521552987783988 21.795013710264552 0 0 0
221 2 1 6.964154620418471 0.7699807644951926 23.065879100775582 0 0 0
222 2 1 8.07502833462986 1.5062580150600693 23.67212977539128 0 0 0
223 2 1 8.740832197490121 0.6582721725760334 24.732314217646163 0 0 0
224 2 1 9.925162068662946 1.282843406797555 25.492845193458955 0 0 0
304 6 1 11.150317167502951 3.5243739110205383 21.34298527237444 0 0 0
305 6 1 11.716284323190715 2.563082397000557 22.40904068162574 0 0 0
306 6 1 12.72334145462391 3.3859488650951772 23.26890821737632 0 0 0
307 6 1 13.158397174637258 2.709654280517898 24.58426779427539 0 0 0
308 6 1 14.217371108521222 3.530389898836678 25.284415655040505 0 0 0
309 6 1 14.721096798841765 2.7258625670688668 26.465314198554154 0 0 0
310 6 1 15.847010369716056 3.339744721964992 27.291121499189142 0 0 0
311 6 1 16.161422859252948 2.528848134704791 28.571955373244805 0 0 0
312 6 1 17.173487868400958 3.202463061095929 29.518027777767024 0 0 0
4565 22 1 18.342971168197003 25.81091904283381 19.09197933609348 0 0 0
1136 9 1 17.754358715405118 11.250034104714205 30.626861787249773 0 0 0
826 6 1 8.920822978876254 7.799582454835086 19.622020010650385 0 0 0
598 32 1 3.0184914259964666 5.5464780871597466 16.506955768903417 0 0 1
7691 50 1 5.736414637978928 5.630033618324604 32.0332329481499 0 0 0
379 6 1 8.120093380423947 3.740729416714447 17.190161892524863 0 0 0
380 6 1 8.839398051027008 2.8593602886664318 18.255882260802238 0 0 0
381 6 1 9.55492894539182 3.776347716147939 19.240107765778326 0 0 0
382 6 1 10.137926233321712 2.8977940649853897 20.37647128610437 0 0 0
383 57 1 9.594503986891835 5.793595309018782 26.220042053827015 0 0 0
384 57 1 10.61850989298986 5.070389100448359 27.050300510601375 0 0 0
385 57 1 11.324235309294096 5.871064136412846 28.16678709023978 0 0 0
386 57 1 12.175881570645185 4.944812316867518 28.98751437251909 0 0 0
387 57 1 13.006858831683559 5.781333808858967 29.954536830677796 0 0 0
388 57 1 13.558746990415512 4.858226154807392 31.024039064177074 0 0 0
389 57 1 14.628110597074745 5.56857241594909 31.817119238410726 0 0 0
390 57 1 14.899646145968699 4.71813205198032 33.0216228903202 0 0 0
391 57 1 16.141444534398975 5.227112743053201 33.73624568933914 0 0 0
392 57 1 16.545700063785564 4.51535899901335 35.05475296208917 0 0 0
5866 39 1 3.101612395330778 11.342978052204558 35.843280463302094 0 0 0
1053 8 1 1.5689465533544857 10.360094781112032 16.245917424395717 0 0 0
2889 9 1 11.655086853316803 5.154583021141671 16.10741633469836 0 0 0
601 57 1 4.9528080497085485 5.969228501151051 19.85926439957093 0 0 0
602 57 1 6.2516813992669595 5.482640565999487 20.498581112699604 0 0 0
603 57 1 6.441162989320682 5.91429107468035 21.973138605543074 0 0 0
604 57 1 7.678008312786237 5.339011615461392 22.72477494892525 0 0 0
605 57 1 8.003875337485065 5.835905194950936 24.107843356508553 0 0 0
606 57 1 9.168976454878589 5.223506009227668 24.828028363966247 0 0 0
607 6 1 13.66439797649044 7.492434750507597 23.99542277654893 0 0 0
608 6 1 13.82130817115988 7.807824471426129 25.519839498964473 0 0 0
609 6 1 15.180246082049031 7.471159550941978 26.044948623390447 0 0 0
610 6 1 15.273320724371176 7.5820373034191455 27.565170325738933 0 0 0
611 6 1 16.61893886017645 7.056244717346064 28.060931240308314 0 0 0
612 6 1 16.85741922018362 7.434165975933233 29.527327430314415 0 0 0
1375 54 1 2.226075427303531 14.335339975470912 17.167370667558956 0 0 1
8509 60 1 1.3345169373153178 14.156808510458868 27.643590875938067 1 0 0
4483 28 1 11.296433919828683 23.104475093852727 16.72540821940363 0 0 0
3647 22 1 17.357134836479446 13.996018668844957 25.025863537677154 0 0 0
1223 61 1 17.05451216050896 14.61298889193835 36.203660132735976 0 0 0
3419 20 1 16.006635640950584 12.75546813486944 17.336113574488444 0 0 0
7695 50 1 8.802753906797943 5.7379117337742045 36.0139639662185 0 0 0
7590 48 1 2.0793347594558744 4.0858243051446665 22.333553697750816 0 0 0
827 6 1 10.329445733235659 7.646312287971723 20.184181722134362 0 0 0
828 6 1 10.515160737075744 7.872355325159252 21.684667727669215 0 0 0
829 6 1 11.93736014723957 7.599091494403581 22.077961159172226 0 0 0
830 6 1 12.22655965230242 7.694284307864694 23.516696205796908 0 0 0
831 8 1 3.2354503819580223 10.285310529963013 18.06270590480728 0 0 0
832 8 1 4.292590279293757 9.426463606803727 18.8922728214307 0 0 0
833 8 1 4.965657140272646 10.307533367387483 19.914089266006215 0 0 0
834 8 1 5.951472862457045 9.502689496669003 20.750930399606837 0 0 0
835 8 1 6.499821312314543 10.397122920550611 21.86894449654612 0 0 0
836 8 1 7.4702426236624655 9.580186805340372 22.6984373949536 0 0 0
837 8 1 7.854869745767831 10.310717544458006 23.98659722036757 0 0 0
838 8 1 8.74594136265142 9.37710107152389 24.894172521253815 0 0 0
839 8 1 9.406623679087161 10.20919992086342 26.008384180425622 0 0 0
840 8 1 10.38554798188005 9.41654754876412 26.870825329388325 0 0 0
841 8 1 11.216460740043313 10.169129517120666 27.945432268820163 0 0 0
842 8 1 11.961554158998382 9.341948367891078 28.92818205172867 0 0 0
599 32 1 3.2791734295427886 5.8865065809156984 17.919831279211884 0 0 1
8129 39 1 3.9941775038388765 10.331079269915618 30.56620622696023 0 0 0
7589 48 1 1.7107386962819473 3.3218273812185104 20.98942564165721 1 0 0
4025 28 1 12.390916593180242 19.175694411039157 17.524055025011293 0 0 0
848 8 1 16.642228792068703 8.95184975003788 35.041736549653564 0 0 0
1751 62 1 2.528928243948736 18.604308304005087 17.294320430668513 0 0 1
9200 60 1 11.909501963911678 20.61417170565209 35.610167216720626 0 0 0
1134 9 1 16.30828320090764 11.58573398947824 28.361827433629692 0 0 0
1135 9 1 16.888555262444374 12.121491559475974 29.70045731282842 0 0 0
4183 24 1 18.503465866513082 21.430968700487956 19.034565897249802 0 0 0
8420 2 1 1.7314888647063984 12.731164228706218 22.507291151561603 0 0 0
7082 47 1 1.6419480535969884 25.14122070726085 34.076921132609584 0 0 0
2201 14 1 1.7864325772904672 24.159383900806624 16.117141481292258 0 0 0
6248 52 1 2.007783876428636 15.970648580611417 33.86296489899868 1 0 0
313 6 1 17.614485162111816 2.3607753301971828 30.68264934393312 0 0 0
3199 19 1 17.921914253773135 9.698330013943899 24.271799205262045 0 0 0
5416 34 1 3.4403434032704503 6.7505718474093115 35.82739095844662 0 0 0
2366 16 1 12.385018405532813 1.4115489195733395 17.456494484186777 0 0 0
3418 19 1 13.444334816350729 10.53884823643281 19.601580535422908 0 0 0
2371 16 1 16.260266254220983 0.4868330960389567 22.568711650945392 0 0 0
8516 60 1 6.934772776314851 14.699960619367916 34.50211693654546 0 0 0
1209 9 1 13.06122649981474 11.674550165543806 24.85228766919826 0 0 0
1210 9 1 13.525416094220134 12.246744674219244 26.16612399705904 0 0 0
1211 9 1 14.526359551505221 11.39095653074634 26.834512899844206 0 0 0
1212 9 1 15.08320814745269 12.32571554457243 27.889334544812417 0 0 0
1213 61 1 9.013042239734096 14.51593988818312 26.416017433383104 0 0 0
1214 61 1 10.130679750606665 13.74921767077821 27.06362703308521 0 0 0
1215 61 1 10.558768450089522 14.465485277339472 28.321429432550474 0 0 0
1216 61 1 11.523369909693404 13.651543249452818 29.23321041555444 0 0 0
1217 61 1 12.115149577607525 14.481266199505633 30.329760384858684 0 0 0
1218 61 1 13.339577994366822 13.836548118838738 31.006111124328736 0 0 0
1219 61 1 13.759582313829027 14.720783500651267 32.256385965411425 0 0 0
1220 61 1 15.05262553202999 14.190149293153668 32.85930670431259 0 0 0
1221 61 1 15.301935967879437 14.652573634322263 34.28099652260744 0 0 0
2818 9 1 17.863024103016613 4.829069821761249 24.051972346942932 0 0 0
8897 44 1 3.9183493762192105 18.863518551548342 30.797515148068697 0 0 0
7592 48 1 3.7342180696090552 4.095601444307253 24.270201013580234 0 0 0
3415 38 1 11.508329544402702 9.741227988001505 16.14122548613544 0 0 1
1286 61 1 4.2860749984014515 14.606723377602496 20.469162994762105 0 0 0
1287 61 1 5.403570977932363 13.891551561023059 21.331309995818533 0 0 0
1288 61 1 5.96734572863704 14.777379418303852 22.497430700985614 0 0 0
1289 61 1 7.048213467387154 14.053148026560109 23.23462243425215 0 0 0
1290 61 1 7.901772395468842 14.873662354233605 24.199838418971964 0 0 0
1291 61 1 8.648043789185225 13.873574223015805 25.068301596857594 0 0 0
1456 11 1 15.402811843486232 16.761706386460787 28.003163126761237 0 0 0
1457 11 1 16.280545094489653 15.994370808757592 29.039480905177385 0 0 0
1458 11 1 17.273203538728875 16.7747527368894 29.955757154363866 0 0 0
8126 39 1 1.7588236608596146 9.497045176212998 27.507516774784982 1 0 0
2593 1 1 15.740216903117581 2.831771017324978 16.19286503966029 0 0 0
3803 24 1 16.885314484348452 16.10824754400135 18.718855788587934 0 0 0
1374 54 1 1.1944901508282466 15.138765621989446 16.40127060683051 0 0 1
1750 62 1 2.072769870764993 19.431978777452468 16.116164504604704 0 0 1
5414 34 1 1.8538505293071221 6.801222393716266 33.739120416226044 1 0 0
8511 60 1 3.0311650342997956 13.965432090487376 29.57616079080534 0 0 0
8512 60 1 3.815666001014471 14.859847063857798 30.54327071969785 0 0 0
1452 10 1 8.260829471134603 16.106187926224774 18.99819565550604 0 0 1
7588 48 1 0.5913042308129814 4.003220455737933 20.22915089122434 1 0 0
1455 10 1 10.878012880749399 16.96630888827481 21.879953527705393 0 0 1
215 17 1 2.9543858231060374 1.0206413484424637 16.633991539310713 0 0 1
7902 31 1 3.6133389423963314 8.284289008319746 24.311129457271424 0 0 0
1533 11 1 13.855516570106378 16.75202575134049 25.939649572295266 0 0 0
1534 11 1 14.362619689384355 16.054749649566958 27.168795793587382 0 0 0
1535 12 1 8.490771030819708 18.330451403125497 25.41309795035825 0 0 0
1536 12 1 9.753464953500723 18.889130981876296 26.054300165402708 0 0 0
1537 12 1 9.904870865865838 18.565348824523536 27.495667864787187 0 0 0
1538 12 1 11.211244758668029 18.98256905428679 28.14490465350814 0 0 0
1539 12 1 11.568851169941293 18.34401283207146 29.49101867561732 0 0 0
1540 12 1 12.916799928365911 18.803161597289918 30.028248979365415 0 0 0
1541 12 1 13.240456914572533 18.15944564081167 31.34603987186584 0 0 0
1542 12 1 14.527271982427136 18.778429714125892 31.925333433936302 0 0 0
1543 12 1 14.839370711202731 18.37737892361111 33.38814852156698 0 0 0
1544 12 1 16.088970717440322 18.96415797715143 33.88156833437598 0 0 0
1545 12 1 16.577185972392908 18.36892477749908 35.221954595148844 0 0 0
4969 33 1 1.7306924080593857 3.446481995559555 33.007334064790854 0 0 0
8896 44 1 2.844379476754318 18.296876346505353 29.837842069173167 0 0 0
8134 39 1 8.031809927412228 9.640817251190443 35.38277413322393 0 0 0
1754 12 1 4.944398631295985 19.588228465085912 20.234862666100128 0 0 0
1755 12 1 5.381911909408359 18.715539264001173 21.40181326641063 0 0 0
1756 12 1 6.628809130365216 19.297721350341405 22.0901268166566 0 0 0
1757 12 1 6.92378067505828 18.568714173310486 23.385410125356344 0 0 0
1758 12 1 8.209286407626161 19.01435641306436 24.080278113166322 0 0 0
1759 45 1 11.221849345224012 20.687926787705628 22.830396440624448 0 0 0
1760 45 1 12.263806537507495 21.352201106713206 23.71713613459189 0 0 0
1761 45 1 12.841239702204366 20.450794719666508 24.822321177855784 0 0 0
1762 45 1 13.72547492598455 21.378765537040845 25.64691119288878 0 0 0
1763 45 1 14.638970661503988 20.575008842643502 26.63144141905478 0 0 0
1764 45 1 15.382590844608519 21.381319750470624 27.725007339804755 0 0 0
1765 45 1 16.402166579937447 20.52823543370877 28.487099552433968 0 0 0
8799 57 1 0.5581609595496719 17.526096465227315 20.232926483966345 1 0 0
9290 61 1 8.44380633186445 23.16079192693427 36.47694558399344 0 0 0
3420 20 1 17.23828734274897 12.278673199958023 17.96753349190896 0 0 0
1054 8 1 2.408590209407849 9.437647887790916 17.060007639812493 0 0 0
8804 57 1 4.066422961567542 16.252045696688736 25.323499141040344 0 0 0
8814 57 1 11.852180649139646 15.989980293159054 35.40035924016827 0 0 0
8125 39 1 0.5608410550802394 10.317046797751445 26.92527117003928 1 0 0
8127 39 1 2.3357076613802 10.329437749134392 28.65472083123946 1 0 0
1980 45 1 9.422071540516667 21.409014132690615 19.514657810548947 0 0 0
1981 45 1 10.103437925466901 20.668427214178966 20.664077200919465 0 0 0
1982 45 1 10.757011362553806 21.527047780673268 21.639338827435434 0 0 0
1983 14 1 6.316468523001832 23.760066569688473 22.247291583897905 0 0 0
1984 14 1 7.388509033805128 22.98979386018678 23.004776271163255 0 0 0
1985 14 1 7.756462792371744 23.546170134312725 24.379731278176966 0 0 0
1986 14 1 8.7292002691041 22.613323721985065 25.08045004192436 0 0 0
1987 14 1 9.375765262074129 23.400901363678496 26.203905253878588 0 0 0
1988 14 1 10.568602715628602 22.670895106813415 26.792968098603147 0 0 0
1989 14 1 11.148625162212262 23.320269899499404 28.011818783026023 0 0 0
1990 14 1 11.822279035111727 22.425498472869926 29.0798978159566 0 0 0
1991 14 1 12.561305454848206 23.20478587333712 30.191049721679676 0 0 0
1992 14 1 13.618421006880082 22.289929408395906 30.743552251138553 0 0 0
1993 14 1 14.346361136285477 23.06324266367622 31.887133487214236 0 0 0
1994 14 1 15.34640883967024 22.247646964218017 32.63313890540026 0 0 0
8434 2 1 12.758058734648348 12.027893728457498 36.429453708835 0 0 0
846 8 1 15.030899745251336 9.054272091784528 33.00303531163212 0 0 0
4406 24 1 17.289149518322603 20.918839000198926 18.280470720788827 0 0 0
2203 14 1 3.2584731401627445 24.096790594933143 18.24200103248546 0 0 0
2204 14 1 4.313469176482167 23.303556293818662 18.993969097725735 0 0 0
2205 14 1 4.605456621323006 23.855189768576697 20.32080678629639 0 0 0
2206 14 1 5.82700776371301 23.151895068199213 20.946178653409106 0 0 0
2286 14 1 11.322738531256524 25.03863698733123 22.95292346306853 0 0 0
2287 14 1 12.444469702551757 25.78679677241867 23.702883260291216 0 0 0
2288 14 1 13.263490384110206 25.02250227928613 24.71665272569072 0 0 0
2289 14 1 14.322856995891005 25.84472960253288 25.497116684239078 0 0 0
2290 14 1 14.50261675954989 25.30219914452038 26.909218416712484 0 0 0
2291 14 1 15.822846616624394 25.685115109853864 27.485684333903016 0 0 0
2292 14 1 16.026985382166707 25.265696541642473 28.9405646217067 0 0 0
2293 14 1 17.424375245671644 25.502759245593495 29.556844009192798 0 0 0
9289 61 1 7.59413240777041 22.404464893993893 35.506419846202036 0 0 0
1977 53 1 6.8549401561516845 20.97394217412507 16.70461569558503 0 0 1
9185 60 1 0.5951896061457009 21.890190035027118 20.025990923194495 0 0 0
824 5 1 7.294399338800298 8.017586434887042 17.640544596761305 0 0 1
8514 60 1 5.444312498468552 14.83548311683984 32.394719934754534 0 0 0
2370 16 1 15.671253552527288 1.240840165865159 21.352514336578018 0 0 0
7694 50 1 7.75614584664794 4.908697861733155 35.26100780022141 0 0 0
2362 14 1 9.388282429475947 25.84543025733318 19.67996065719977 0 0 0
2363 14 1 9.853772693827763 24.891465438041855 20.75755406561469 0 0 0
2364 14 1 10.924465040836745 25.609505406732122 21.572572376270042 0 0 0
2594 1 1 16.814011249818385 3.647792262908975 16.901341678925544 0 0 0
1451 10 1 7.674109380726176 17.039710837303346 18.02887760831189 0 0 1
6634 55 1 3.039174408567383 21.040440901986575 35.03355607515494 0 0 0
9510 51 1 12.20941547982134 24.654895522289145 35.19340459515877 0 0 0
4413 28 1 18.641143717900725 23.65547781264934 25.620684791907316 0 0 0
9198 60 1 10.307241246916094 20.643960869638732 33.76182379299469 0 0 0
6635 55 1 3.395829756043475 20.301017250138763 36.38666987099065 0 0 0
217 17 1 4.474714175125739 1.0477092578938678 18.67235870257555 0 0 1
7687 50 1 2.525768041099523 6.053380159422469 28.208998702794617 0 0 0
1130 35 1 9.010653116168477 12.55473554566812 19.798864458418052 0 0 1
378 6 1 7.3738269412642135 3.025928779093006 16.168086695446085 0 0 0
823 5 1 7.136784381275823 8.006628347307249 16.092939374427544 0 0 1
3801 24 1 15.62505879035952 16.062151873389094 16.43546398148477 0 0 0
1978 45 1 7.728176558027485 21.678599147612363 17.74966518270292 0 0 0
2813 9 1 13.912155519834645 6.210700925158776 19.124569166777857 0 0 0
2814 9 1 14.545934558211439 5.287842480903954 20.097257283293953 0 0 0
2815 9 1 15.476648502046622 5.883003794003181 21.127081280515295 0 0 0
2816 9 1 16.21516654115144 5.013610187473781 22.13426405509556 0 0 0
3193 4 1 16.625796695213317 8.328957153458258 17.079875414494737 0 0 1
3194 19 1 17.663292977588924 7.5332462645219564 17.935429329967736 0 0 0
2595 1 1 17.218879048152587 3.0986065720803864 18.296327015785167 0 0 0
3805 24 1 18.39790941540858 16.15735945665905 20.72546876257926 0 0 0
9511 51 1 13.44591980138877 25.144202641287944 36.02250021013933 0 0 0
2891 9 1 12.921197620067392 5.380596845456558 18.346344940913824 0 0 0
9285 61 1 4.658757503647351 22.32804942491137 31.25039002917653 0 0 0
1208 9 1 12.083559907468281 12.462324057768809 23.948303977052383 0 0 0
7688 50 1 2.9937541101681076 5.209220774588045 29.405165435610627 0 0 0
7899 31 1 1.7227792426916602 7.7710278760643705 20.959354049823713 1 0 0
3195 19 1 14.657389980576115 9.999702766337423 20.36348068325067 0 0 0
3196 19 1 14.807305513635798 10.45431023975341 21.82814035713869 0 0 0
3197 19 1 16.19162619832686 10.014495637561351 22.32919908982822 0 0 0
3198 19 1 16.54089667682419 10.183708534623577 23.803625326334483 0 0 0
4033 28 1 18.43509025947798 19.1524838815536 25.895363477672326 0 0 0
2971 19 1 18.187841004078518 8.451923218435224 19.11471119901827 0 0 0
9288 61 1 7.04265391599192 23.12482063187127 34.33424396720131 0 0 0
7083 47 1 2.8097161450728825 25.873832408021766 34.77175630190426 0 0 0
8132 39 1 6.170799780736986 9.393595771531041 33.721500328094535 0 0 0
3721 22 1 13.305768517925154 14.86820367638404 20.116105468954185 0 0 0
8894 44 1 1.3025589036737912 18.699781385217168 27.914673388115908 0 0 0
2817 9 1 17.070630852130787 5.7598589043577 23.154235456414643 0 0 0
1752 12 1 3.646237908556944 19.375356921053317 18.01974604978382 0 0 0
2361 14 1 8.552214695507955 25.034153281033177 18.603163631998274 0 0 0
3643 22 1 14.147166607841497 14.031835150920008 21.04029477490224 0 0 0
3644 22 1 15.053175601502325 14.805580779318563 22.020334281125283 0 0 0
3645 22 1 15.768087924513686 13.949076829297027 23.051175010308597 0 0 0
2202 14 1 2.6685562168896486 23.267513662206145 17.051328837780943 0 0 0
7300 48 1 1.4813933071253476 0.8204678799592298 27.36096558715129 0 0 0
9 2 1 16.58830454236479 0.2765956147241839 34.90709849033364 0 0 0
4405 27 1 17.00581859224064 21.303025945888713 16.814346746776014 0 0 1
8419 2 1 1.4621674429412246 12.202915410437818 21.1296461348733 1 0 0
1132 35 1 10.70960321722688 12.483709864971749 21.73135010772434 0 0 1
2365 16 1 11.36283893751697 0.734042638496604 16.577176758719723 0 0 0
7603 48 1 12.504593684696765 2.5207589063053923 35.069728587412115 0 0 0
8802 57 1 2.6695366435933594 16.43068374292583 23.253887624901054 0 0 0
3800 23 1 11.310190721848056 14.117808056825972 16.664519021838544 0 0 1
847 8 1 16.03350404876114 9.816120083108487 33.88052571691807 0 0 0
2368 16 1 14.001125972740514 1.3570534862857955 19.52548834116982 0 0 0
4026 28 1 12.70052673459689 18.78673301782449 18.997221260553406 0 0 0
4027 28 1 13.91822050953924 19.30677532106849 19.748051044244168 0 0 0
4028 28 1 14.326017573544267 18.60577170426603 21.06654970811091 0 0 0
4029 28 1 15.183536795306681 19.462036791818683 21.88199726220402 0 0 0
4030 28 1 15.656102493070522 18.52349198934289 23.08602448535075 0 0 0
4031 28 1 17.02276035105765 19.023486291768727 23.746670599052166 0 0 0
5413 34 1 1.3164920457733196 7.732633281996856 32.63111329686905 1 0 0
1532 11 1 12.935233100033711 15.999923409717988 25.08576174821421 0 0 0
7692 50 1 6.088999776956591 4.840115202532341 33.22689825636074 0 0 0
3719 22 1 11.950997524483794 14.964980329650308 17.846021638101476 0 0 0
600 57 1 4.497663157607461 5.2337099555381705 18.59834162328764 0 0 0
7303 48 1 3.8779624735564906 1.5337347969262276 30.363174515397716 0 0 0
8901 44 1 6.823051594455861 18.868533784413934 34.77831910606987 0 0 0
4407 28 1 13.8831521301759 23.57157281765947 19.558064078162918 0 0 0
4408 28 1 14.389558595231726 22.72591754659866 20.747564050771654 0 0 0
4409 28 1 15.412853582657073 23.52431025522848 21.6151557090756 0 0 0
4410 28 1 16.131497608727166 22.756880563836642 22.671005776143893 0 0 0
4411 28 1 16.95659475918246 23.671291917271674 23.62550772160452 0 0 0
6247 52 1 0.9844086025802535 16.74485808676749 33.10610015210817 1 0 0
4103 28 1 11.050115275969763 18.665110566849346 16.99935627211251 0 0 0
8510 60 1 2.2047914912271227 14.842031771969527 28.643575898068384 0 0 0
8902 44 1 7.459125658397284 18.132455127685052 35.95391158092394 0 0 0
8131 39 1 5.258995370347552 10.21757868461547 32.81221295433299 0 0 0
1546 12 1 17.933954833754687 18.804793587627696 35.82367163091914 0 0 0
9284 61 1 4.112978300478211 23.367109686529435 30.243135494519887 0 0 0
8801 57 1 1.884026198302647 17.34579100953434 22.345263840291395 1 0 0
3646 22 1 16.792778741646632 14.773009189295594 23.849696778075593 0 0 0
1453 10 1 9.05579643108475 16.978064185577466 20.00856865017982 0 0 1
2372 16 1 17.413373035792116 1.137129452720862 23.31775720039829 0 0 0
1454 10 1 9.930089368009556 16.198544485452302 20.998242157711033 0 0 1
4485 28 1 12.824529375337795 22.93928636670677 18.66627391127431 0 0 0
9509 51 1 11.47688166108169 25.560392396502532 34.222849370003445 0 0 0
1996 14 1 16.78260555200531 22.35546985218336 34.74163399011003 0 0 0
2294 14 1 17.75697727275111 24.991368587283482 30.929975931113457 0 0 0
2890 9 1 12.12808039729217 6.04660345162704 17.271672321918167 0 0 0
1995 14 1 16.009605829534575 23.09822615132765 33.679176970561805 0 0 0
1133 35 1 11.457837053032566 11.666956937535684 22.78283994180447 0 0 1
7685 50 1 1.0798777382729716 6.302489306661619 26.206263977652064 0 0 0
6633 55 1 2.005002289378206 20.371713298288647 34.0939416609304 0 0 0
7304 48 1 4.617603648369492 0.5472533214534994 31.263213447251545 0 0 0
7305 48 1 5.608588889512527 1.290099707641948 32.20743922874247 0 0 0
7306 48 1 6.489981925848283 0.5709968922042491 33.24656987467674 0 0 0
7308 48 1 8.140408755110837 0.3667461284215256 35.07750396735769 0 0 0
8803 57 1 3.3688879743045157 17.194926166962524 24.379615693237973 0 0 0
3802 24 1 16.057573321788958 16.891288115505507 17.644344536360734 0 0 0
7593 48 1 4.7031384647225245 3.217740582583981 25.055273647889862 0 0 0
7594 48 1 5.4133360134831845 3.9737047992717263 26.240430834057243 0 0 0
7595 48 1 6.425372887697066 2.9904409102834393 26.989004951664192 0 0 0
7596 48 1 6.931877476738236 3.7268929164562175 28.235976441672083 0 0 0
7597 48 1 7.9781582251297785 2.947456916276391 28.88549048133766 0 0 0
7598 48 1 8.380291074754314 3.498821572496344 30.22544534914646 0 0 0
7599 48 1 9.37746624943984 2.76720654657024 31.052272645091094 0 0 0
7600 48 1 9.984208344372895 3.664374135837112 32.12850018043582 0 0 0
7601 48 1 10.802339313900049 2.781228562360583 33.13510543138858 0 0 0
7602 48 1 11.579640899416729 3.4297030255557632 34.2751917323492 0 0 0
2373 16 1 17.82884871562798 0.4903208744378032 24.632994333240482 0 0 0
3421 20 1 17.453063326450504 12.693707526251321 19.402997621234416 0 0 0
4643 22 1 17.20926870276903 25.140829220324203 18.339643682029273 0 0 0
4032 28 1 17.61644775819423 18.2682942569535 24.939455267350766 0 0 0
5864 39 1 1.9688176303706073 11.604671877951079 33.65394838631204 0 0 0
1459 11 1 17.991548227314443 15.954550402582381 30.98787401021475 0 0 0
7301 48 1 2.262704759364567 1.7311604453376355 28.334646322342422 0 0 0
8900 44 1 5.803801877144712 18.086137716966586 33.99706216711075 0 0 0
2360 14 1 7.876665669319001 25.827481130594208 17.494443749259748 0 0 0
1376 54 1 2.9214250220967446 14.959749610691526 18.36146795903057 0 0 1
7914 31 1 12.940419531631902 7.708766935212589 36.064603671542145 0 0 0
8805 57 1 4.8221077590773715 16.963252044808975 26.456625908593946 0 0 0
849 8 1 17.419462224096943 9.692628582325002 36.11690291025738 0 0 0
8133 39 1 6.820482735426512 10.275214448616476 34.76304238265837 0 0 0
7903 31 1 4.951880407170869 7.856518982737017 24.850131660455027 0 0 0
7904 31 1 5.0116050942533565 7.88142654043353 26.377653580993186 0 0 0
7905 31 1 6.445008069892627 7.630076807097294 26.89795160146734 0 0 0
7906 31 1 6.593725389065857 8.030831969200891 28.35461092304135 0 0 0
7907 31 1 7.89519692062825 7.622404214115199 29.002066334020803 0 0 0
7908 31 1 8.187282328845907 8.205081292189211 30.307724634559538 0 0 0
7909 31 1 9.449390324206085 7.578022071604795 30.902457597081288 0 0 0
7910 31 1 9.816008278807598 8.163583767879192 32.23902235401191 0 0 0
7911 31 1 10.949284135329055 7.359787066465581 32.90583537871524 0 0 0
7912 31 1 11.218797223310501 7.769844938809805 34.33091039876255 0 0 0
844 8 1 13.390606128711955 9.359690798404372 31.08305621176447 0 0 0
1131 35 1 9.934704948026395 11.690675824963387 20.640597608317805 0 0 1
9498 51 1 2.681915895696513 25.458994614293513 23.455226336860374 0 0 0
7689 50 1 3.991347866160676 5.864739105421364 30.288694473759406 0 0 0
614 6 1 18.30895556199621 7.474944123424676 31.466456859206495 0 0 0
7693 50 1 6.913562204772373 5.723162192641767 34.25602892853751 0 0 0
216 17 1 3.7710043111643445 1.9151202901894733 17.574741637179372 0 0 1
8421 2 1 2.9492322282436145 12.096250848414526 23.085575000585628 0 0 0
7307 48 1 7.405142273663025 1.314619944304137 34.167127098496465 0 0 0
1129 35 1 8.377963756191058 11.917167673926214 18.569182553881323 0 0 1
8130 39 1 4.61114127330242 9.447440552004162 31.671291901183743 0 0 0
3416 19 1 12.102430891558447 10.389481519754563 17.421317337520016 0 0 0
1530 11 1 11.396434855183962 16.04110767696574 23.001406087761435 0 0 0
9186 60 1 0.9586818344849133 21.18550451831754 21.344448272552157 0 0 0
8423 2 1 4.624469107547977 12.05160702614579 24.99620858580662 0 0 0
8424 2 1 4.902980498951318 12.449752172162398 26.510373398835824 0 0 0
8425 2 1 6.329909098867758 12.048015769606254 27.01229195117636 0 0 0
8426 2 1 6.433554599222348 12.182584299299482 28.49016802996162 0 0 0
8427 2 1 7.859715461127717 11.819714545246756 29.026568285389857 0 0 0
8428 2 1 8.129019017627558 12.384237079261549 30.407439650119528 0 0 0
8429 2 1 9.27061943698585 11.701923221245394 31.13744992350302 0 0 0
8430 2 1 9.257191164480252 12.043766652484194 32.601555963591935 0 0 0
8431 2 1 10.6456149501829 11.80626258442972 33.158740712055035 0 0 0
8432 2 1 10.948127704062536 12.112658158394707 34.591128248936876 0 0 0
7690 50 1 4.5384020788516235 5.010208137130702 31.36209866051104 0 0 0
7302 48 1 2.6806233263632797 0.9181290532033274 29.562142075991396 0 0 0
7591 48 1 3.3622682717013856 3.4467482528619056 22.962240986108938 0 0 0
8513 60 1 5.07647059474217 14.235084501305563 31.035588745691683 0 0 0
9286 61 1 5.578009620087547 23.07054032293003 32.289868316562185 0 0 0
9495 51 1 0.6867771627421737 26.252142824561712 20.372675570491257 0 0 0
4412 28 1 17.814606280450285 22.850662972332167 24.62908833881186 0 0 0
6250 52 1 3.725725156338054 15.88364618554464 35.85069585202635 0 0 0
3720 22 1 12.964684477240505 14.250389480414254 18.753194977419298 0 0 0
8893 44 1 1.0598680119108619 19.33301840151561 26.561079702796903 0 0 0
7901 31 1 3.347370563220318 7.990959139083879 22.850786012142933 0 0 0
1285 61 1 3.998871039616224 14.179406081865976 19.00911147814174 0 0 0
9283 61 1 3.2522229649320544 22.742590465121218 29.142721438071035 0 0 0
1768 45 1 18.783026254643595 21.12072936562904 31.476530780442452 0 0 0
1222 61 1 16.645243822191734 14.045644865285821 34.78186088090393 0 0 0
8806 57 1 5.800990850484919 16.14648347468553 27.3566166306517 0 0 0
8807 57 1 6.556221691255151 17.008768677310268 28.279479919048242 0 0 0
8808 57 1 7.409100994016602 16.12540962160764 29.212883198788923 0 0 0
8809 57 1 8.175689304965678 16.875534535504098 30.31858982173749 0 0 0
8810 57 1 8.860432262245288 16.00392089732803 31.355365865205098 0 0 0
8811 57 1 9.821363182354878 16.85903879111824 32.22757868640882 0 0 0
8812 57 1 10.398678324485644 15.95336255598058 33.27313800336192 0 0 0
8813 57 1 11.349589981492512 16.769631708731644 34.18382020288531 0 0 0
3648 22 1 18.428887310455767 14.675498329294628 25.77515564442712 0 0 0
6632 55 1 1.6502869432548852 21.175671594296162 32.84353007067247 0 0 0
2369 16 1 14.403549596246624 0.5666511649089424 20.835839156670076 0 0 0
7900 31 1 1.9879877374049717 8.368146582629477 22.325408435072582 0 0 0
1127 35 1 6.888847908742056 11.872077630090898 16.58226392144255 0 0 1
7913 31 1 12.338665266885723 6.922086085848941 34.942407380949746 0 0 0
9187 60 1 2.2021314504786202 21.742758901475362 22.0366314344318 0 0 0
9499 51 1 3.4127650019066307 26.359270243511972 24.48051492167321 0 0 0