LAMMPS data file via write_data, version 23 Jun 2022, timestep = 11111117

9706 atoms
2 atom types
9690 bonds
3 bond types
9674 angles
3 angle types
9658 dihedrals
3 dihedral types

0 36.89775039 xlo xhi
0 26.67072 ylo yhi
15.935306694396274 220.81629770556515 zlo zhi
0 6.446002083032932 0 xy xz yz

Masses

1 14
2 15

Pair Coeffs # lj/cut/omp

1 0.0914 3.95
2 0.1947 3.75

Bond Coeffs # harmonic/omp

1 449.5 1.53
2 449.5 1.53
3 449.5 1.53

Angle Coeffs # harmonic/omp

1 62.0967 114
2 62.0967 114
3 62.0967 114

Dihedral Coeffs # opls/omp

1 1.411 -0.271 3.145 0
2 1.411 -0.271 3.145 0
3 1.411 -0.271 3.145 0

Atoms # molecular

1 3 1 6.270116242921431 1.23303953518923 21.417438057349504 0 0 0
2 3 1 6.762339897442812 1.9896941625546762 22.65117180442138 0 0 0
3 3 1 8.078697695072284 1.2783177490751716 23.04755941895085 0 0 0
4 3 1 8.667760021747934 1.8190064726246167 24.337594771889727 0 0 0
5 3 1 9.772910799328141 0.9675533734315842 25.046939955732796 0 0 0
6 3 1 10.103086809668097 1.5570358282015124 26.4313174059333 0 0 0
7 3 1 11.352613384075044 0.9560361386396371 27.040007992369695 0 0 0
8 3 1 11.758084622281048 1.6782046488715097 28.36886656652601 0 0 0
9 3 1 13.089092251462024 1.2124002877696987 28.89050985015536 0 0 0
10 3 1 13.415118406971136 1.796898047411034 30.24242098964519 0 0 0
11 3 1 14.578858437252817 1.0826809758520313 30.97649105137142 0 0 0
12 3 1 15.17281666129484 1.8799313846256671 32.1367433735205 0 0 0
13 3 1 16.241034554017048 1.1144926925467842 32.916187900438885 0 0 0
8796 59 1 5.166273924056428 16.6804346540651 25.765012276353822 0 0 0
7721 52 1 3.104793596598355 3.2046819948085794 23.917767219707425 0 0 0
2650 47 1 12.888731327114417 1.8872570489171436 17.837901275503853 0 0 0
8040 53 1 2.5911101348168106 8.254431790649244 22.529643219963297 0 0 0
9402 12 1 3.566821712465938 23.58146056373747 28.412733242096643 0 0 0
8800 59 1 8.16422540941951 16.353734126136217 29.75173616446331 0 0 0
9315 3 1 2.2265138021587183 20.83140494491617 21.42342928013457 1 0 0
222 3 1 3.44487541500419 1.5449806299638507 18.80251402853724 0 0 0
223 3 1 4.585729251380436 1.001515622309626 19.615755028828957 0 0 0
224 3 1 5.174671603285437 1.9277069355841283 20.67136086225436 0 0 0
304 59 1 10.757655234508396 3.3195665516477293 21.12527736778243 0 0 0
305 59 1 11.57397681345192 4.182868342378442 22.029017158704605 0 0 0
306 59 1 12.337805956989564 3.2492132009118406 22.959536364038268 0 0 0
307 59 1 12.971316757707982 3.8516515040837 24.168475639785267 0 0 0
308 59 1 13.96863934435045 3.018364424308831 24.903836898223283 0 0 0
309 59 1 14.40122325227689 3.8792009591033 26.124547366986178 0 0 0
310 59 1 15.75600853280227 3.4426586900771095 26.75850268578504 0 0 0
311 59 1 16.270523358225976 4.273023928897875 27.94152475899201 0 0 0
312 59 1 17.417779929939194 3.6357007767361345 28.630239472949064 0 0 0
842 52 1 18.545492643847 10.581126345455184 35.97048006339499 0 0 0
394 4 1 17.9081175947151 6.115372586545561 36.42252550497706 0 0 0
1656 56 1 10.396526787109185 16.940572522052726 21.249950759800207 0 0 0
1878 11 1 3.4863622910759244 18.6720814956755 17.288629070137265 0 0 0
6382 36 1 2.342163130445085 16.349180388158516 34.182092949924495 0 0 0
8799 59 1 7.564217786096145 17.2741976756023 28.764284752034627 0 0 0
379 59 1 7.433389282327291 3.0813263275057317 17.27634500315527 0 0 0
8352 54 1 2.2914448481225516 12.289117667376596 21.34212274743014 0 0 0
382 59 1 9.841641913168841 4.099001654118889 20.212756286503005 0 0 0
383 4 1 9.023643504217075 5.330161155783524 25.28229333041275 0 0 0
384 4 1 9.86530140294552 6.047063311182564 26.286985772283792 0 0 0
385 4 1 10.666384902746486 5.253814947127577 27.321833509496066 0 0 0
386 4 1 11.539041085619406 6.299850887839694 28.044900495204182 0 0 0
387 4 1 12.628017235436014 5.662754677363766 28.929909609239104 0 0 0
388 4 1 13.251967492079812 6.428783299016252 30.088842685068045 0 0 0
389 4 1 14.232670512438077 5.634983003937195 31.011958373759498 0 0 0
390 4 1 14.749866238897821 6.218950563239444 32.327814694812616 0 0 0
391 4 1 15.7932810307716 5.461728941882624 33.13968206839482 0 0 0
392 4 1 16.267145666327377 6.223573406973542 34.37240413407953 0 0 0
393 4 1 17.202935666209786 5.419129925185585 35.24828843284875 0 0 0
3101 13 1 16.0712383794107 7.499954396180276 16.846898790557532 0 0 0
314 59 1 18.823428727307984 3.4798525880497095 30.85612567197883 0 0 0
2200 14 1 2.970162832266236 23.546428460021506 17.28482121332834 0 0 1
1579 45 1 8.911906608468517 17.300959114932578 17.765570558105058 0 0 1
600 4 1 3.6690927756260985 6.246596365698689 18.19893410504351 0 0 0
9403 12 1 3.792069365100534 23.14017150498539 29.8497603074328 0 0 0
4152 14 1 16.31557918053731 16.17336742834569 16.400133690611373 0 0 1
602 4 1 5.203272905338412 6.264511101672695 20.248537878154934 0 0 0
603 4 1 6.096789084300523 5.407615014363678 21.175619072198337 0 0 0
604 4 1 6.922337892759315 6.18354524494075 22.276008385176567 0 0 0
605 4 1 7.926507428688414 5.44570481867428 23.10306498818492 0 0 0
606 4 1 8.277815573138685 6.235947387633968 24.346174497406217 0 0 0
607 6 1 8.856396079564163 7.74607470647572 19.018115124977214 0 0 0
608 6 1 9.764553162376762 8.594795823101393 19.96516729880806 0 0 0
609 6 1 10.417806595760899 7.82557334393785 21.131366732576183 0 0 0
610 6 1 11.254700826709387 8.592962569104811 22.1261646325577 0 0 0
611 6 1 11.983239294367513 7.646974919951405 23.13807878859943 0 0 0
612 6 1 12.917521732753023 8.420056546480845 24.043919430575627 0 0 0
613 6 1 13.482331689523551 7.530093236455428 25.134773058191854 0 0 0
614 6 1 14.451590487323289 8.392924957449509 25.953547784199287 0 0 0
615 6 1 15.364855173920667 7.641140655535634 26.87954828199954 0 0 0
616 6 1 16.188884320357687 8.490715920123494 27.72126739959909 0 0 0
617 6 1 17.012871614858337 7.694451696979411 28.725167957680412 0 0 0
1657 56 1 11.716700401880612 17.104679649146334 21.939356325707593 0 0 0
3333 21 1 18.043020413846225 10.078218866097844 24.745462555538097 0 0 0
2203 14 1 5.81273752190429 24.21059641223608 19.86396952419664 0 0 1
1271 8 1 7.7369121063991715 12.339032307232676 16.94916729376231 0 0 1
7818 46 1 6.262002807853443 6.274956583591109 32.8898027563137 0 0 0
9314 3 1 1.5948255446215704 21.460698921635593 20.196795645853783 1 0 0
830 6 1 8.127717876377618 8.555777065465415 17.999727961219033 0 0 0
831 52 1 9.31484806564183 9.877870032813407 25.53360766451475 0 0 0
832 52 1 10.512410493378455 10.63204453365394 26.058597389244234 0 0 0
833 52 1 11.088943582851197 10.077344290037642 27.440840959679143 0 0 0
834 52 1 12.335110783233457 10.741622450232454 28.01972400323507 0 0 0
835 52 1 12.835043213416478 9.983406546842833 29.26195312497265 0 0 0
836 52 1 13.870358426599815 10.769642146763506 29.962924409898335 0 0 0
837 52 1 14.250145270978523 10.172114220219195 31.334268468684726 0 0 0
838 52 1 15.536141413340607 10.826580039858236 31.87027488460999 0 0 0
839 52 1 16.01604276456513 10.05809714730583 33.08599105747028 0 0 0
840 52 1 16.915352825374214 10.8066172509831 34.08901888179096 0 0 0
841 52 1 17.61996128606121 9.824008741358014 35.069527920211385 0 0 0
6829 20 1 1.1731805607176296 21.013348313736728 31.962049504703 0 0 0
221 3 1 3.265378295074108 0.8709886357776826 17.49086283411197 0 0 0
9633 64 1 2.6821465972961422 26.101587000464864 22.45719108429585 0 0 0
1499 11 1 4.677506182283238 14.322308518217486 18.90814975375713 0 0 0
2202 14 1 4.64586704247864 23.46176762101808 19.23249520242818 0 0 1
3929 25 1 13.587174609084462 14.371563489331686 18.69325036156575 0 0 0
1049 52 1 4.705382934182391 9.889273620327605 19.262714888752587 0 0 0
1050 52 1 5.666996044612619 10.689087319958718 20.212977943918062 0 0 0
1051 52 1 6.151147263375649 9.964576857894548 21.41933859897492 0 0 0
1052 52 1 7.347726793055123 10.553079062226695 22.149254584210855 0 0 0
1053 52 1 7.683602555259981 9.795710169815788 23.505192202979792 0 0 0
1054 52 1 8.72480075708959 10.491033061298493 24.362687617193306 0 0 0
1055 60 1 13.948658396300873 12.16147299616802 24.853637719528408 0 0 0
1056 60 1 14.715421387337514 13.060205088707766 25.86530627374667 0 0 0
1057 60 1 15.736524604073624 12.294496636768175 26.756452247760585 0 0 0
1058 60 1 16.12569332997525 13.122445111972382 27.983320987039995 0 0 0
1059 60 1 17.273255163689324 12.401010098661127 28.710404129351087 0 0 0
5994 25 1 1.396623569427958 11.991371292858526 31.946222564928718 1 0 0
2648 15 1 11.025690269811866 1.897132290483987 16.06485612149671 0 0 1
6384 36 1 4.0554772407795046 16.36215771311852 35.97335223258657 0 0 0
2874 1 1 16.108157439813798 2.8978694136056324 16.570629798792215 0 0 1
8137 53 1 8.382758936146065 9.62380772402191 35.73532124753412 0 0 0
7718 52 1 1.1450810948179038 3.8826698257456544 20.643813839795087 1 0 0
7492 64 1 2.4324703344636642 1.0232561796834974 27.70789940297426 0 0 0
8129 53 1 1.9147235590760365 9.73229176571591 27.846123989046717 0 0 0
8038 53 1 1.2116387284215886 8.236207028908694 20.465108344710018 0 0 0
1275 60 1 10.551889859625943 12.20365716425346 20.985518331489427 0 0 0
1276 60 1 11.249070905656692 13.025257501398743 22.069916615092115 0 0 0
1277 60 1 12.057374301744613 12.155216779441467 23.080456428070406 0 0 0
1278 60 1 12.985683368863858 12.988517436548882 23.920219857256292 0 0 0
1279 11 1 7.698042332951931 14.454532489588097 23.049848703262416 0 0 0
1280 11 1 8.179632223805593 15.172083461516063 24.334857455459268 0 0 0
1281 11 1 8.99762334842866 14.250860539161533 25.26128188928729 0 0 0
1282 11 1 9.762048460896125 15.07104102780363 26.312717208104118 0 0 0
1283 11 1 10.657616384187108 14.303476897205917 27.360496673023462 0 0 0
1284 11 1 11.397276730848214 15.129180354954592 28.45349123787736 0 0 0
1285 11 1 12.2496725773514 14.310868649614978 29.41927205567339 0 0 0
1286 11 1 13.148733636112421 15.22747793891601 30.21117247636706 0 0 0
1287 11 1 14.078864304541632 14.436353799101003 31.116335308724082 0 0 0
1288 11 1 14.599365595169772 15.235449880582944 32.3481595572306 0 0 0
1289 11 1 15.461596402240097 14.292806888087563 33.189431086635565 0 0 0
220 3 1 2.082466861281384 1.5452385081811575 16.815474300790168 0 0 0
6381 36 1 1.6621988309218474 17.097010400542064 33.07808181927069 0 0 0
1580 45 1 8.992961401068182 17.02850561717246 19.23683501426031 0 0 1
8794 59 1 3.4356604241201576 16.514655367052885 23.8340701912202 1 0 0
1273 8 1 9.063934023442156 12.449202678562274 19.02845612734939 0 0 1
9407 12 1 6.790043233831879 23.114363592238668 33.85854212884212 0 0 0
3710 25 1 17.112858562638117 14.930495811952714 23.91297504713934 0 0 0
1496 11 1 2.0120405602247784 14.986695483910836 16.170210289918582 0 0 0
8576 30 1 2.5610299059107895 15.155993679670098 28.94677776601479 0 0 0
1500 11 1 5.347710247119269 15.16171907821085 20.029194644354764 0 0 0
1501 11 1 6.233371181464773 14.445254525225526 21.001908311493 0 0 0
1502 11 1 6.695560709651057 15.244115941754728 22.224372785970903 0 0 0
1582 56 1 14.788616804350678 17.106244822542514 25.79932865473824 0 0 0
1583 56 1 15.149627235857094 16.69647867698521 27.179613142867176 0 0 0
1584 56 1 16.42588794089437 17.298153652725894 27.720899380238784 0 0 0
1585 56 1 16.745191933958658 16.543756714740777 29.01324174699822 0 0 0
7491 64 1 1.2168343204101661 1.6511918682180196 26.927034767727537 0 0 0
599 5 1 2.723885599752978 5.408991672790637 17.262778007978287 0 0 1
4160 29 1 18.5752217077986 18.772419633334025 24.267059861505786 0 0 0
2424 55 1 9.539428047959401 25.612259810806986 18.87780239223349 0 0 0
1586 56 1 17.845991435842514 17.266308489466496 29.79897888886336 0 0 0
3332 21 1 17.262168387420356 10.858313889758104 23.678076124258915 0 0 0
8574 30 1 1.1284543620571261 15.086668755206793 26.822346456408923 1 0 0
9406 12 1 6.493132192977376 23.819835093436968 32.554271255559115 0 0 0
9639 64 1 7.408673874748004 26.177694986949717 28.55744152794056 0 0 0
9409 12 1 8.428971933663366 23.119286865848913 35.82041690395634 0 0 0
2651 47 1 13.34836894770492 0.9678441629605631 18.95397727073706 0 0 0
1658 56 1 11.848319632748263 16.51028516978508 23.33777862550845 0 0 0
1659 56 1 13.175924863055958 17.006368724055108 23.904451012649286 0 0 0
1660 56 1 13.46681906567369 16.543414097601076 25.3351698164789 0 0 0
1661 11 1 8.823623549831565 19.500130168783453 24.28546859191118 0 0 0
1662 11 1 9.427139815157615 18.712621975903353 25.382795437947443 0 0 0
1663 11 1 10.39427994415305 19.45391071303179 26.256879412994216 0 0 0
1664 11 1 10.919491200682444 18.71401834987915 27.4964401922813 0 0 0
1665 11 1 11.777504201966876 19.649537676592356 28.30885810952431 0 0 0
1666 11 1 12.263540029709052 18.99887896622077 29.582683186844456 0 0 0
1667 11 1 13.47322481729892 19.59930319158172 30.195188982656894 0 0 0
1668 11 1 13.881094594349834 18.865946283497973 31.47760752809281 0 0 0
1669 11 1 15.32844281950867 19.131644990914587 31.909630003243116 0 0 0
1670 11 1 15.616589846794842 18.713494672019074 33.374640358189595 0 0 0
1671 11 1 16.860517643929196 19.31474810943403 33.95563962564535 0 0 0
1672 11 1 17.32598047879984 18.594786176063625 35.23804684854832 0 0 0
1880 11 1 4.901851661751763 18.717664553708893 19.224427726335026 0 0 0
1497 11 1 3.153305973009027 14.29419646778383 16.918854975875128 0 0 0
9313 3 1 0.7844697625707342 20.5459011347455 19.212601883809963 1 0 0
6383 36 1 3.4271497085117364 17.152652081808792 34.87353266014913 0 0 0
1046 7 1 2.636300981521933 10.631652271798416 16.103161662501183 0 0 1
8798 59 1 6.499478923811377 16.60828877142644 27.934588025517627 0 0 0
2201 14 1 4.309678834470442 23.970529101896073 17.8189361495506 0 0 1
1881 11 1 5.745452326866081 19.609599255491503 20.12009527892297 0 0 0
1882 11 1 6.428481756391677 18.74563780278814 21.29614268731708 0 0 0
1883 11 1 7.197420987380634 19.631472177203232 22.291842807748488 0 0 0
1884 11 1 7.783801572928415 18.758950333535893 23.424457682995403 0 0 0
1964 50 1 11.750235008700601 21.583428182597743 22.046316973852367 0 0 0
1965 50 1 12.300991680180076 20.866879871834463 23.24158023226886 0 0 0
1966 50 1 13.472340165386564 21.520030184021632 23.88425488833124 0 0 0
1967 50 1 14.013590261254535 20.67996661628704 25.05685752212328 0 0 0
1968 50 1 14.817907385416179 21.56362826355951 25.928038689776535 0 0 0
1969 50 1 15.556423171837203 20.77688129522769 26.989999146507532 0 0 0
1970 50 1 16.10262694542632 21.59702722328663 28.143158672493907 0 0 0
1971 50 1 17.08704249190824 20.763950870533733 28.97184512527707 0 0 0
4917 41 1 16.64277087508382 25.383925289973327 16.194036523129792 0 0 1
2423 55 1 8.304000098716283 26.257381701781068 18.227787222078916 0 0 0
9398 12 1 0.2881636589872883 23.765720234919474 24.608955681839575 1 0 0
2875 32 1 16.71947971057392 3.6984533404448805 17.71424095733759 0 0 0
8364 54 1 11.641706519108038 11.712196759531203 33.532932048361786 0 0 0
8793 59 1 3.2295704277326425 16.904187251201098 22.369290710037035 1 0 0
3098 17 1 12.445594851487341 6.153789131747868 17.934946266034473 0 0 0
2040 50 1 8.971091818979344 20.98317264310352 19.451126651163193 0 0 0
2041 50 1 10.12544911883636 21.65498134329435 20.12904870776848 0 0 0
2042 50 1 10.587736235392855 20.880160371496405 21.324815739563462 0 0 0
2043 13 1 11.902872565710929 24.090918388042844 27.991932902397913 0 0 0
2044 13 1 12.486200706747354 23.262173599971415 29.146417290415982 0 0 0
2045 13 1 13.518272842314662 24.068751661014826 29.955101803694287 0 0 0
2046 13 1 14.127498869702455 23.28525742651763 31.10176844008394 0 0 0
2047 13 1 15.273142653504793 23.813358073625512 31.842016970707732 0 0 0
2048 13 1 15.796388312169446 23.06639042219325 32.99378172111544 0 0 0
2049 13 1 16.849476441374865 23.86971147011365 33.76090956469335 0 0 0
2050 13 1 17.46826513250553 23.135901239698256 35.00201370827327 0 0 0
8581 30 1 6.9534419627480135 14.059733303436095 33.73000389064624 0 0 0
3099 17 1 13.47572285448894 5.417761379676516 18.842617444924382 0 0 0
14 3 1 16.537370322697274 1.803051352759987 34.255024694569116 0 0 0
7819 46 1 6.784970957178753 5.389146189552776 34.03560923473499 0 0 0
2653 32 1 18.43535840114716 3.695649246053056 19.49014475648463 0 0 0
6832 20 1 3.4067550998282807 21.603670763259274 35.16391455410475 0 0 0
381 59 1 9.16445682896467 3.195922290311399 19.190914092887176 0 0 0
2425 55 1 10.158874730741138 26.324572550055073 20.122424333913166 0 0 0
8351 54 1 0.8914637589362884 12.460345900324006 20.836310024858395 0 0 0
2116 13 1 7.521456713395244 24.203702264122775 21.807007799534727 0 0 0
2117 13 1 7.938031403391545 23.535864220945175 23.100234931829142 0 0 0
2118 13 1 9.084592311596593 24.231703944603947 23.862364564104002 0 0 0
2119 13 1 9.394411294035953 23.467950119372013 25.135285628960737 0 0 0
2120 13 1 10.482705075128978 24.17262722640276 25.96403663003128 0 0 0
2121 13 1 10.833804897430815 23.352840997602225 27.189840252615383 0 0 0
2204 55 1 12.835570339421677 25.31737007193839 22.910956221376686 0 0 0
2205 55 1 13.425793270218323 26.097888154183646 24.129896444848022 0 0 0
2206 55 1 14.253622331410268 25.215668369349718 25.05693095840501 0 0 0
2207 55 1 15.11115336310315 26.15062758517121 25.950398734861626 0 0 0
2208 55 1 15.564427119886554 25.45196039973854 27.213001590485227 0 0 0
2209 55 1 16.48987114426162 26.24636813985373 28.170927429530078 0 0 0
2210 55 1 17.09049616362281 25.379499573547317 29.233019212196563 0 0 0
313 59 1 17.72533997800022 4.231781638853596 29.984632640367167 0 0 0
7719 52 1 1.5689231663130698 3.042919565215867 21.86813834551943 1 0 0
2211 55 1 18.295984016374938 26.09143524381047 29.885527635590563 0 0 0
1972 50 1 17.770162482356863 21.511359000912233 30.08930174984946 0 0 0
4378 30 1 16.769369676769873 21.39116170605778 17.30358332052954 0 0 0
9029 61 1 4.790012819479892 19.62703929245068 30.691750501678065 0 0 0
8803 59 1 10.52911499937718 17.100490064733425 32.70377331120517 0 0 0
5552 40 1 0.8558393105020206 7.327136558730468 32.13227679421314 0 0 0
2649 47 1 11.95099300860519 1.0969125553704582 17.016416270949236 0 0 0
2426 55 1 11.186351442769215 25.4278673933279 20.860346468273576 0 0 0
2427 55 1 11.886558892827319 26.14291242201577 22.065409447699885 0 0 0
2428 47 1 14.44842301460983 1.6623981478792982 19.790759002282506 0 0 0
2429 47 1 15.116045082126998 0.7686656576906776 20.75564128276723 0 0 0
2430 47 1 15.94495594122307 1.5606088969481198 21.78225984136992 0 0 0
2431 47 1 16.917354143333387 0.7552495933653534 22.685556208059136 0 0 0
1048 52 1 4.0362418525018695 10.753911640495973 18.169835770023226 0 0 0
8806 59 1 12.877297264363689 16.140968130979022 35.69228376908881 0 0 0
9324 3 1 9.128547537856875 21.647164343480313 30.456470749022277 0 0 0
9034 61 1 8.69609116133976 18.74726818818575 35.61453847753707 0 0 0
1879 11 1 4.2379434401444405 19.548087693775003 18.24763065727338 0 0 0
7821 46 1 8.402577403486427 5.207601290149379 35.99392646133503 0 0 0
1581 45 1 10.324908108028911 17.435466494972893 19.844220960784476 0 0 1
3329 21 1 14.947118238807684 9.706295266889896 20.692531286428313 0 0 0
9033 61 1 7.69286846709876 19.51150634776922 34.76513989773858 0 0 0
829 6 1 7.323688377520705 7.722179570841691 16.932315128616366 0 0 0
2876 17 1 14.204844099066488 6.37679414759408 19.855121627701052 0 0 0
2877 17 1 15.044702214387282 5.480675119808457 20.758019315584004 0 0 0
2878 17 1 15.924359434923538 6.237933283338172 21.815758405809845 0 0 0
2879 17 1 16.727327983805576 5.363729086969626 22.82384363479588 0 0 0
7280 50 1 3.4646972311480213 26.170408712483155 34.67741035758428 0 0 0
1291 11 1 17.17390710273253 14.163605921637934 35.26317349408191 0 0 0
2051 13 1 18.54456372800442 23.89941546101584 35.807946307770436 0 0 0
9026 61 1 1.9501470535823557 19.13022631928786 27.987480600995177 0 0 0
7720 52 1 2.6389637694693646 3.8223944196563138 22.599182741733635 0 0 0
1578 45 1 7.712394292529292 16.73905873993646 17.064043368176513 0 0 1
8041 53 1 3.180951738671898 7.532050495660429 23.71477300659534 0 0 0
8580 30 1 5.909459373118235 14.83342593878835 32.923514969251926 0 0 0
8350 54 1 0.7785170750972319 12.507149150260537 19.315482461318602 0 0 0
8792 59 1 1.828369443274888 16.484400665525705 21.916067938774006 1 0 0
5165 38 1 1.8403700175104896 3.829047563684905 33.10914740186595 0 0 0
1292 11 1 18.035978050734485 15.004145623340138 36.03551493754031 0 0 0
3326 21 1 12.414611185263226 10.55726235104068 17.917326630274154 0 0 0
3327 21 1 13.545602575426956 9.879583952681099 18.634216415722616 0 0 0
3328 21 1 13.841149708750084 10.545535217612336 20.01386987610964 0 0 0
1290 11 1 16.117939857752194 14.91044912012463 34.40944886108561 0 0 0
8360 54 1 8.558225364108281 12.071061615078454 29.480638045460697 0 0 0
8133 53 1 5.374862960969425 9.716453517504485 31.507921528690666 0 0 0
8130 53 1 3.2005806430120676 10.33347118169969 28.376129538253725 0 0 0
3928 25 1 12.535403285207936 15.078170627342049 17.823960935091254 0 0 0
8353 54 1 2.5220761836718024 12.563937513495866 22.865442902559685 0 0 0
9323 3 1 8.158939041319941 20.80759860111265 29.64661025835771 0 0 0
9637 64 1 6.19030371493866 26.359708001217886 26.314022327587022 0 0 0
9032 61 1 6.936018544161169 18.685493675611543 33.67795990396098 0 0 0
3706 25 1 14.09079313022656 15.21051298545404 19.92543099206024 0 0 0
3707 25 1 14.970381696551103 14.334624624850237 20.841170845323592 0 0 0
3708 25 1 15.705983383956623 15.158497929007874 21.875000107593024 0 0 0
3709 25 1 16.615794438535858 14.242493814755505 22.677213608872503 0 0 0
1673 11 1 18.507780659778522 19.362409204281455 35.823590536114395 0 0 0
3551 22 1 17.947578392777714 11.955827859991356 18.337418269293078 0 0 0
3097 17 1 11.868680204852346 5.3016586319169985 16.79934217783602 0 0 0
15 3 1 17.715654523863055 1.0889458192506185 34.98892776308246 0 0 0
9399 12 1 0.5628568461645561 23.13140804209897 25.982372170400275 1 0 0
4153 26 1 17.055812714150797 16.91452150739854 17.525283962527347 0 0 0
9028 61 1 3.750731998574439 19.030228088881945 29.745069621374093 0 0 0
3550 22 1 16.69025648777005 12.542416643867874 17.695529258459302 0 0 0
9638 64 1 6.667164509681948 25.408136422250372 27.4434086145344 0 0 0
9405 12 1 5.203423407029002 23.29058307302076 31.931373788804038 0 0 0
4154 29 1 13.74347362861532 19.087380714418344 18.711714809421295 0 0 0
4155 29 1 14.238242261419899 19.82840929664519 20.00478549455122 0 0 0
4156 29 1 15.079033777183131 18.964424181060775 20.86880760744817 0 0 0
4157 29 1 15.745312895726176 19.60936995993483 21.977421430493102 0 0 0
8791 58 1 1.6943605433702673 17.06797328821839 20.502244206227044 1 0 1
1963 23 1 7.217647136616982 21.866643247018462 16.075970512909798 0 0 1
8366 54 1 13.463403226345811 11.677193588701185 35.3218923119329 0 0 0
4159 29 1 17.41592704588102 19.438687035693896 23.66818619797318 0 0 0
8805 59 1 12.085160662383569 16.977523358316645 34.70030730734812 0 0 0
4377 29 1 12.68672222949887 19.80921041591855 17.879675619175632 0 0 0
4158 29 1 16.957410286169733 18.823157760452485 22.37585726295616 0 0 0
9318 3 1 4.830774694960802 21.714751573023232 24.21501240585658 0 0 0
9636 64 1 5.42359766046072 25.560503937875666 25.23626445361782 0 0 0
1973 50 1 18.730267548002196 20.855231004198238 31.086546314939817 0 0 0
1272 8 1 8.299284779512334 13.286784441471273 17.987437968914122 0 0 1
4537 32 1 13.19706311480827 24.022867253280552 17.769801807085454 0 0 0
4538 32 1 13.773307800635347 23.182170082382793 18.864202984463933 0 0 0
4539 32 1 14.837808936530152 23.989295890492556 19.627009154348148 0 0 0
4540 32 1 15.199591938545487 23.213665501213548 20.91746631976509 0 0 0
4541 32 1 16.358144115136692 23.809752911919567 21.714346895127587 0 0 0
5553 40 1 2.0440986972400728 8.115344914674578 32.66885639738844 0 0 0
9327 3 1 11.182100880979682 20.883599669747802 33.584283196709904 0 0 0
7723 52 1 4.757123151228422 3.182043028026038 25.7974441333702 0 0 0
9329 3 1 12.68058548991327 20.91119213207583 35.541425970859294 0 0 0
9632 64 1 2.126795335149205 25.258662539357484 21.311889521631528 0 0 0
4543 32 1 17.539079976684505 23.899651401379526 23.950660547391394 0 0 0
5166 38 1 2.5809907662100127 3.012906767667006 34.085958630022844 0 0 0
2039 50 1 8.721305946423708 21.645128844114538 18.09845211666559 0 0 0
2432 47 1 17.39084653249297 1.523007765104193 23.901836511508293 0 0 0
7494 64 1 3.933951644856383 1.0049047798038864 29.762280716540587 0 0 0
4838 33 1 17.093837832709987 26.126719080488535 17.477543415465835 0 0 0
9031 61 1 6.145975899122615 19.520863120678285 32.65891635436301 0 0 0
9322 3 1 7.7683566922093155 21.71819035694284 28.454786275393104 0 0 0
7490 64 1 0.8537893781059998 0.9434134415306864 25.639351585552276 0 0 0
5164 38 1 1.0975793800823301 3.02478940339009 32.028673437888344 0 0 0
9316 3 1 3.274996605761607 21.670613764437086 22.065404023130696 0 0 0
9631 64 1 1.0188140850364003 25.953371069316386 20.56329037635849 1 0 0
8128 53 1 1.3854411464758642 10.394709241293052 26.595438215995216 0 0 0
3330 21 1 15.552382634655292 10.51025129312972 21.86629694649441 0 0 0
7499 64 1 7.845073359581328 1.4576982924300204 34.80795615693417 0 0 0
3549 22 1 16.57543504179548 11.846550927848057 16.341874374715307 0 0 0
7817 46 1 5.08966758943572 5.699792907949879 32.12156651416532 0 0 0
2881 17 1 18.25837541442435 5.445258858393777 24.79791891276338 0 0 0
1498 11 1 3.960242023261388 15.161400674938724 17.842016260515003 0 0 0
9640 64 1 8.207014248477154 25.40766268759538 29.59892487373868 0 0 0
9647 64 1 14.120034313890102 26.142287034912822 36.217202014184565 0 0 0
2038 50 1 7.917117001044451 20.94066456379388 17.08713778025084 0 0 0
6380 36 1 0.6603505449138569 16.405806697224836 32.13699634822571 0 0 0
9634 64 1 3.697755450897706 25.40071482272041 23.368968373371793 0 0 0
9321 3 1 6.819180424262582 20.99249642690385 27.53727826064042 0 0 0
8797 59 1 6.323057005566915 17.276705058311546 26.569703710846 0 0 0
8354 54 1 3.9120238743135674 12.264553338915357 23.439262788986795 0 0 0
8573 30 1 0.335250032170796 14.227450314149817 25.900819919311594 1 0 0
9326 3 1 10.834766115647763 21.59889800538939 32.26939195609815 0 0 0
9404 12 1 4.854141783124262 23.98160690696425 30.606053631746597 0 0 0
2115 13 1 6.374800088480293 23.492508414120422 21.113073886429067 0 0 0
618 6 1 17.76066617543204 8.575103787855717 29.703780750077655 0 0 0
9645 64 1 12.744908788920007 25.996454846690096 34.261980631245194 0 0 0
9635 64 1 4.483276911774104 26.302331853447132 24.3763151112758 0 0 0
3103 13 1 17.843144392280664 7.514140721352699 18.668007304332907 0 0 0
9408 12 1 8.05322630596285 23.754203965076652 34.45162400407739 0 0 0
8363 54 1 10.616777174584342 12.5408322948052 32.76501306275654 0 0 0
4542 32 1 16.727755188347693 23.068074426331048 23.00671101229447 0 0 0
8804 59 1 11.113406865424157 16.228526872691024 33.84330090139144 0 0 0
7495 64 1 4.678981419082922 1.8388450026478407 30.865290932931753 0 0 0
7496 64 1 5.892867026191515 1.1443719090871152 31.479834800269455 0 0 0
7497 64 1 6.121310546395476 1.4384651564925426 32.97424218751401 0 0 0
7498 64 1 7.333720514195423 0.7277009986947862 33.56961848340848 0 0 0
8802 59 1 9.917797314119248 16.296290736599786 31.650669873206738 0 0 0
8042 53 1 4.033859204426458 8.452695828516966 24.572243363521117 0 0 0
9328 3 1 12.18580602613717 21.654311032112133 34.361480801762866 0 0 0
7733 52 1 12.812844177166818 3.281892391405188 35.68641099130272 0 0 0
9025 61 1 1.7296040811767057 19.554981176528628 26.484436954116084 0 0 0
7722 52 1 4.308167264832213 3.9344181888546927 24.549258008658242 0 0 0
8362 54 1 10.112187379582199 11.872874056688142 31.51730468790128 0 0 0
7724 52 1 5.987899432493177 3.818311677942771 26.40476087893539 0 0 0
7725 52 1 6.62875808190711 3.1642935077987873 27.66143538421273 0 0 0
7726 52 1 7.6519842339799355 4.012751973503655 28.481331029425164 0 0 0
7727 52 1 8.21784801503198 3.3787364695936035 29.737342398012224 0 0 0
7728 52 1 9.135585651542971 4.375090401346179 30.453738466889956 0 0 0
7729 52 1 9.830828464670065 3.714135108179261 31.666822272201628 0 0 0
7730 52 1 10.934118476189884 4.378147107619521 32.40259424097219 0 0 0
7731 52 1 11.186243450483168 3.6084471466421175 33.63130574217255 0 0 0
7732 52 1 12.54007392861727 3.991242090401508 34.32659824067494 0 0 0
7500 64 1 8.783478475947403 0.7412987498613575 35.70686834258326 0 0 0
2433 47 1 18.415413721170665 0.680796975295651 24.7184437779922 0 0 0
601 4 1 4.296581916881237 5.446877000741592 19.346772415394632 0 0 0
3331 21 1 16.5299069461664 9.784968517180033 22.809544741395595 0 0 0
8577 30 1 3.7769297192393987 14.451676054820334 29.529165214243882 0 0 0
9644 64 1 11.478478987443486 25.440385173032432 33.61299381551202 0 0 0
9320 3 1 6.383612176677799 21.821983844322006 26.305754808894328 0 0 0
8582 30 1 7.529242193046353 14.930700880090543 34.88720057317538 0 0 0
8365 54 1 12.253000386741709 12.376153173733064 34.789974885778975 0 0 0
9641 64 1 9.182495269067012 26.21713994767012 30.497827607717916 0 0 0
9317 3 1 3.6946163693164498 21.06596941149778 23.40759901286576 0 0 0
4536 32 1 12.18877779638891 23.29088083421001 16.998025997819322 0 0 0
7813 46 1 1.9601209489469795 5.448801802921824 28.24562332501197 0 0 0
7814 46 1 3.299619519473505 5.957858290244828 28.738357136951215 0 0 0
7815 46 1 3.761087720752286 5.31002750107651 30.017024907543806 0 0 0
7816 46 1 4.841784298887645 6.142677317109992 30.703022999107883 0 0 0
1274 60 1 9.757174690490801 13.209904878182135 20.164973385484622 0 0 0
380 59 1 8.264018978423785 4.056573203921319 18.224012353231522 0 0 0
9643 64 1 11.021627154924508 26.19994770534925 32.412324096299564 0 0 0
4379 30 1 18.027020680639588 20.71289784815373 17.805520456906166 0 0 0
7493 64 1 2.829075420448402 1.7813193124895588 29.0014135693492 0 0 0
7277 50 1 1.2962038561140854 25.13577117574439 31.498099714499254 0 0 0
8795 59 1 4.706366942913412 17.23571621518445 24.360418918282672 1 0 0
8361 54 1 9.039110737911317 12.618723317838887 30.816099216975264 0 0 0
8043 53 1 4.893367278354997 7.670541518190714 25.589993672945596 0 0 0
8044 53 1 5.857419495338704 8.462979740541067 26.47215105894246 0 0 0
8045 53 1 6.382114376661345 7.736791155632936 27.752606919736092 0 0 0