LAMMPS data file via write_data, version 23 Jun 2022, timestep = 11111117

9706 atoms
2 atom types
9690 bonds
3 bond types
9674 angles
3 angle types
9658 dihedrals
3 dihedral types

0 36.89775039 xlo xhi
0 26.67072 ylo yhi
11.174709488447547 225.57689491152598 zlo zhi
0 6.745559590585696 0 xy xz yz

Masses

1 14
2 15

Pair Coeffs # lj/cut/omp

1 0.0914 3.95
2 0.1947 3.75

Bond Coeffs # harmonic/omp

1 449.5 1.53
2 449.5 1.53
3 449.5 1.53

Angle Coeffs # harmonic/omp

1 62.0967 114
2 62.0967 114
3 62.0967 114

Dihedral Coeffs # opls/omp

1 1.411 -0.271 3.145 0
2 1.411 -0.271 3.145 0
3 1.411 -0.271 3.145 0

Atoms # molecular

1 3 1 8.147005780512885 1.8410548010048386 20.68656959520817 0 0 0
2 3 1 8.8452628697058 0.9215514210636979 21.68829362795192 0 0 0
3 3 1 9.691551795475858 1.678273222581362 22.717214716929284 0 0 0
4 3 1 10.612008087487318 0.8170569266369212 23.5858012683387 0 0 0
5 3 1 11.103500257941691 1.5860781098132997 24.795867940203777 0 0 0
6 3 1 11.587566446562747 0.8783770356958464 26.050747432348295 0 0 0
7 3 1 12.532446293612608 1.7673560802390862 26.860099494238 0 0 0
8 3 1 12.895981629536088 1.111846653787003 28.211771271647628 0 0 0
9 3 1 14.111908241697172 1.8191529186990232 28.81823976374399 0 0 0
3706 13 1 18.474078591462934 14.243039096317514 21.269590679364544 0 0 0
1230 11 1 11.913109459904973 14.57432083357313 25.939111088795087 0 0 0
7747 23 1 1.0228768744557986 5.179803039869084 23.506332810818414 0 0 0
3328 26 1 18.572242778722504 9.809737415386627 21.303107700134795 0 0 0
379 36 1 8.328460940925897 3.918903375877105 14.22802102756166 0 0 0
3782 13 1 15.783996734515526 14.962287029909417 18.5089609873488 0 0 0
9641 64 1 2.4136526214608964 25.33329272716048 19.681224775356302 0 0 0
399 6 1 15.8237233925878 6.271622389927781 30.967580032802314 0 0 0
311 36 1 16.24817968435165 3.2692914457526934 25.97328107240738 0 0 0
220 3 1 4.466888803917914 0.9448190929323793 15.633327280552274 0 0 0
221 3 1 4.8962113401172145 1.745686496336564 16.87581915983913 0 0 0
222 3 1 5.805006012104384 0.93426029994165 17.820061536285017 0 0 0
223 3 1 6.337041798835579 1.8188604760792881 18.955306986434145 0 0 0
224 3 1 7.330216861115571 1.0264171954628465 19.76133993649976 0 0 0
304 36 1 11.524170547676444 3.4906711472846985 18.358052635956362 0 0 0
305 36 1 11.87315884729134 2.9303976664768325 19.67983027903219 0 0 0
306 36 1 12.826709744918197 3.7490877382438215 20.496482743704846 0 0 0
307 36 1 13.233687346445665 3.1310033773821835 21.802943270688882 0 0 0
308 36 1 14.357590938043563 3.7903955191297416 22.528253301012548 0 0 0
309 36 1 14.930764022767127 3.1837522296984786 23.817500215271906 0 0 0
2324 15 1 4.923588202697351 23.767689179639437 16.53876909630907 0 0 1
1205 39 1 7.682629832924658 12.660460182887656 11.712563800672008 0 0 1
2720 20 1 16.760568818228762 3.3258754985181134 13.960265439283141 0 0 0
3166 23 1 15.070948706451514 7.388994166779208 11.73661908926617 0 0 0
5487 40 1 1.7137658447803377 7.973916781702151 30.727359063216362 0 0 0
2715 35 1 11.105182465484571 1.8082719205273698 12.391481545861033 0 0 1
8489 5 1 2.679350762927566 12.423842156290938 17.996963632511044 0 0 0
8197 55 1 4.211644066223391 9.649777295034006 27.7458084859586 0 0 0
2722 20 1 18.15069374396205 3.2379642986224866 16.141694205507022 0 0 0
380 36 1 8.962148292640732 3.149326099287086 15.458865495291708 0 0 0
381 36 1 9.83678030156223 3.9125320602500047 16.502535129072005 0 0 0
382 36 1 10.238209425583298 3.1109741109126974 17.705174250703507 0 0 0
383 6 1 4.069017516891841 6.111864633536993 14.355008694966205 0 0 0
384 6 1 4.315374807203878 5.75543287110873 15.903000395088615 0 0 0
385 6 1 5.65590050227241 6.0245844117930325 16.49663490262347 0 0 0
386 6 1 5.878126232233449 5.728177132613784 17.9733722715523 0 0 0
387 6 1 7.156814001477582 6.2656031961465075 18.592892937629987 0 0 0
388 6 1 7.355714707639781 5.6281652482461855 19.925408013485857 0 0 0
389 6 1 8.701565615155438 6.0540124039021785 20.48606177635073 0 0 0
390 6 1 8.912412820249939 5.438504384549842 21.80225408474191 0 0 0
391 6 1 10.217397550188922 5.8875609143574135 22.43753857569788 0 0 0
392 6 1 10.528252226863968 5.274525117726253 23.77741039098741 0 0 0
393 6 1 11.758256242617872 5.7957263093805595 24.502384637877867 0 0 0
394 6 1 11.91840512607422 5.259780319978358 25.89476120648957 0 0 0
8805 58 1 8.636291863608456 16.361544217868733 27.499680015959484 0 0 0
2635 64 1 12.608361025487216 1.4569310776246833 14.554773400869726 0 0 0
9345 63 1 5.994353660666471 23.009246775992903 29.500108776323337 0 0 0
3861 28 1 13.827262398574403 14.190521913190262 15.296000870944118 0 0 1
2719 20 1 16.58865435439246 3.840570505023066 12.54632064061029 0 0 0
3164 22 1 11.812369774153554 5.4594956894839495 13.568655602454912 0 0 0
4089 31 1 18.637667279745994 18.85989634773343 21.47624597585787 0 0 0
7971 54 1 2.5286994806721723 8.5677879457529 18.33350215914627 0 0 0
7970 54 1 1.0574837802642187 8.477491586149858 17.816426540718712 0 0 0
3783 13 1 16.787372370503338 14.220344013954694 19.400151121171252 0 0 0
9254 61 1 1.2614457009792983 20.946750732921455 17.163449881742352 0 0 0
607 59 1 8.979003102461707 8.04528588267656 13.765633507475552 0 0 0
608 59 1 9.218321678360144 7.556052953888044 15.191086888119832 0 0 0
609 59 1 10.425925347954411 8.186344272332752 15.900783799488504 0 0 0
610 59 1 10.744250611940403 7.550990954364914 17.242366243971958 0 0 0
611 59 1 11.926993679559336 8.108662776276855 18.056343215879714 0 0 0
612 59 1 12.074784679080835 7.686542396916671 19.508224404423828 0 0 0
613 59 1 13.415833672007848 8.213641691355198 20.127999271590653 0 0 0
614 59 1 13.394608519918915 7.982095133492208 21.615822194508134 0 0 0
615 59 1 14.755562308145961 8.049451443471739 22.20819254055452 0 0 0
9020 59 1 0.804009551202475 19.03382616274813 22.40851751999819 0 0 0
313 36 1 17.59913822616102 3.2689891418282704 28.047000478180937 0 0 0
1672 14 1 15.991329195482546 19.127466539312703 30.791566816271395 0 0 0
217 2 1 2.2191225677908766 1.868953279203677 12.550853154032145 0 0 1
8804 58 1 8.182764225905867 17.279065284453473 26.32623892121784 0 0 0
2321 15 1 3.1934332225634394 23.157984794389296 13.030942998785187 1 0 1
1236 11 1 16.290583766957702 14.252398088028192 32.250253453411204 0 0 0
4533 32 1 16.0234926332362 21.399732370497276 12.414592439199051 0 0 1
830 59 1 7.7147192140498495 7.446667973933061 13.172213899351972 0 0 0
831 9 1 10.513294633187273 9.723008078606803 23.462185960709302 0 0 0
832 9 1 11.526607316861968 10.55869994614482 24.24446155170732 0 0 0
833 9 1 12.156171168540897 9.969228213037983 25.49328814600794 0 0 0
834 9 1 13.229810122380114 10.767609916029139 26.315596609239158 0 0 0
835 9 1 13.41755540944001 10.142016900448969 27.72576671136653 0 0 0
836 9 1 14.4891744815925 10.855892533398286 28.589689997308934 0 0 0
837 9 1 14.90743809267814 10.012133072189895 29.782157133993852 0 0 0
838 9 1 16.050009244404887 10.664412520222745 30.50784952798043 0 0 0
3482 40 1 18.499258314854707 12.074919525198455 15.112600665942834 0 0 0
8577 3 1 2.346308492345697 14.734272291959348 24.027219994396603 0 0 0
4088 31 1 17.404971085182485 19.448782831010462 20.77506707732909 0 0 0
8585 3 1 8.339649705431453 14.320521288032174 31.994764979514056 0 0 0
7983 54 1 11.610014615272963 8.172568473433335 30.752364842168927 0 0 0
4308 31 1 14.494063910576353 19.52416609970995 16.58506808023334 0 0 0
2721 20 1 18.064907670518146 3.723484925455942 14.643018936030426 0 0 0
3781 13 1 15.421650290134542 14.105528860566444 17.280535577514165 0 0 0
2105 33 1 9.507102487755981 20.773444357152314 15.239964558331557 0 0 0
3859 28 1 12.530005274854815 14.153626669839921 13.102917592015535 0 0 1
905 9 1 7.1750279185827095 10.530917055488509 18.001272259329696 0 0 0
906 9 1 7.491140797063878 9.779265432868218 19.32837328502032 0 0 0
907 9 1 8.712628001983035 10.264684865500065 20.078499818439134 0 0 0
908 9 1 9.028472516841413 9.673378577735537 21.450725607503585 0 0 0
909 9 1 10.087722287019753 10.454913492310528 22.192081219912644 0 0 0
989 9 1 13.345594980060802 12.75362160117379 20.25612143555906 0 0 0
990 9 1 13.971300489797661 11.964189574039654 21.37056392370709 0 0 0
991 9 1 14.825488138829908 12.708442478461777 22.418835258566638 0 0 0
992 9 1 15.425883078849731 11.8113965825972 23.532767333799562 0 0 0
993 9 1 16.284844405579257 12.533277923175278 24.613367217390998 0 0 0
995 9 1 18.056887006388948 12.403740187000134 26.379050344431896 0 0 0
5933 54 1 0.7950438778471821 11.64601937890342 29.599512574721256 1 0 0
3169 23 1 18.03574948708296 8.199549925488702 14.117009385446503 0 0 0
8810 58 1 12.91559027882104 17.080650877837495 32.31024554010342 0 0 0
2718 20 1 15.229769350749557 3.548951213922539 11.849312411027567 0 0 0
8794 58 1 0.9109450917005582 17.011984325411042 15.767381031048338 1 0 0
903 9 1 5.641648255983358 10.58247949449602 15.94477786745034 0 0 0
9643 64 1 4.227275558565527 25.617702716198746 21.470440782318747 0 0 0
1893 33 1 18.391040612358108 20.773079503602244 27.71383047388707 0 0 0
1209 9 1 10.49638648579399 12.706371642803843 16.03193089245572 0 0 0
1210 9 1 10.640620287656592 12.05585020771627 17.45041415701244 0 0 0
1211 9 1 11.811358804610059 12.738404752348133 18.190661974910693 0 0 0
1212 9 1 12.404665503122404 11.947111160944294 19.36647281829722 0 0 0
4311 33 1 17.740457978755476 21.49733723216904 14.351133047190888 0 0 0
8487 5 1 1.2233032092587763 12.649387273234204 15.925331865699562 0 0 0
2948 22 1 17.98753360872462 5.084175906202279 21.745440921301757 0 0 0
6764 47 1 1.976628967779663 21.46912675824401 30.90511761708186 0 0 0
4544 34 1 16.969408620236557 23.37490830438623 19.2089086722206 0 0 0
1218 11 1 3.167356556050611 14.265516615430707 13.235958743770912 0 0 0
1219 11 1 4.527419180227799 14.602506177878622 13.807643472275416 0 0 0
1220 11 1 4.5227825500308425 14.650550536937736 15.364172761193187 0 0 0
1221 11 1 5.839978424764348 14.920089366457482 16.07190774277364 0 0 0
1222 11 1 5.92662043629488 14.383921058352707 17.51062032864464 0 0 0
1223 11 1 7.259055405336645 14.856871358338779 18.192872061359502 0 0 0
1224 11 1 7.3999586601804435 14.580797764061089 19.677053231445257 0 0 0
1225 11 1 8.745190424068406 15.12565940587572 20.29668275918626 0 0 0
1880 14 1 3.870351441489165 19.295963824930457 14.591138038813915 0 0 0
8501 5 1 11.219787960748942 12.512240200640091 30.5342203688013 0 0 0
4083 2 1 17.554977059681004 17.038414352430994 13.012704533248174 0 0 1
2945 22 1 16.062084694073366 5.965894276797138 18.180358899467688 0 0 0
9647 64 1 7.32098568902308 25.522755237647786 25.369210772346435 0 0 0
4307 30 1 14.282594716623692 18.887036935261296 15.185822115384191 0 0 1
1206 39 1 7.9538117575420975 12.205650573322398 13.160768870900135 0 0 1
7969 54 1 1.067001853111224 8.551885492558297 16.259260011092856 0 0 0
7751 23 1 4.10374430821662 5.0286467690937995 27.661746392201888 0 0 0
8809 58 1 11.86047454380521 16.244204591010256 31.49593306868201 0 0 0
1437 13 1 12.29911648810685 16.590051653544513 19.59311922157698 0 0 0
1438 13 1 12.980381870855384 17.39135710527088 20.72233055668933 0 0 0
1439 13 1 13.874382606491068 16.53490130026939 21.547828270684548 0 0 0
1440 13 1 14.82114808887933 17.212394366730138 22.56799972191226 0 0 0
1441 13 1 15.640033172315668 16.347204997517398 23.571814227361983 0 0 0
1442 13 1 16.827338509193424 17.01248384094107 24.298445443316133 0 0 0
1443 13 1 17.405284407363084 16.228650442181106 25.483009003384716 0 0 0
8500 5 1 10.284525223864003 11.690973942969489 29.622429647390764 0 0 0
2101 60 1 6.360694259797951 20.694833760138852 11.27179744149358 0 0 1
7301 63 1 2.3738354503078756 0.7001480377271396 25.50280317752879 0 0 0
4543 34 1 15.684003100419583 23.420224541565787 18.452133007429833 0 0 0
2326 16 1 6.300541583527794 23.796471985428738 18.687941146538424 0 0 0
2115 16 1 16.755094013404328 23.453194592544676 31.713027263691036 0 0 0
2323 15 1 4.644742976612692 23.088349924552325 15.189342155177659 0 0 1
1657 13 1 9.538822595413844 16.48060695896545 15.370966976962007 0 0 0
1658 13 1 10.318182628697542 17.301631620920915 16.386670403194906 0 0 0
1659 13 1 10.929934006764409 16.525798469015047 17.477382102353506 0 0 0
1660 13 1 11.795630041394055 17.3871772199447 18.39906377781829 0 0 0
1661 14 1 7.9296297020624 18.66785247665709 19.497838717290797 0 0 0
1662 14 1 8.360025016160272 19.56231120437213 20.655151944111104 0 0 0
1663 14 1 9.565126230613599 18.97978690576502 21.398974399626915 0 0 0
1664 14 1 9.920941354329027 19.68883591243055 22.682786982278877 0 0 0
1665 14 1 11.073923815654677 19.0463882198683 23.38175384970001 0 0 0
1666 14 1 11.440848567474573 19.794590730909487 24.663218663925747 0 0 0
1667 14 1 12.690823008169813 19.107841506334275 25.27817796246891 0 0 0
1668 14 1 13.15663539132832 19.609755991601844 26.682168231090706 0 0 0
1669 14 1 14.253256016947669 18.783428946806303 27.28704139808832 0 0 0
1670 14 1 14.665557774285741 19.393322258544444 28.576254150441876 0 0 0
1671 14 1 15.645419397454654 18.51272069019036 29.464227132690755 0 0 0
9650 64 1 9.452482612731098 25.97830944795883 28.63398722868057 0 0 0
3325 26 1 15.970680994153362 10.568553159708111 18.570800048712684 0 0 0
4084 2 1 17.567081223468566 17.003093894658573 14.519961636996026 0 0 1
2716 35 1 12.41413844026509 1.210164559269028 13.042041682533426 0 0 1
2343 18 1 18.571419434735812 26.24828110874826 29.16283726949239 0 0 0
9255 61 1 1.9562749669044381 21.804263375767945 18.14773483533022 0 0 0
9639 64 1 0.7940526588375999 25.046609249675146 17.600396743790657 0 0 0
6763 47 1 1.542218811515385 20.897959412073547 29.534317072180997 1 0 0
1881 14 1 4.9203640003375275 18.44586979851209 15.313313354233227 0 0 0
1882 14 1 5.637038656826425 19.283318633293465 16.41645727592013 0 0 0
1883 14 1 6.707486042960942 18.539063005444095 17.330332073277276 0 0 0
1884 14 1 7.1079517075349345 19.454843622821972 18.48195460787187 0 0 0
1885 33 1 12.416612727931515 20.905268692344816 19.424471016223066 0 0 0
1886 33 1 13.037057829655321 21.780792318658673 20.534698759794075 0 0 0
1887 33 1 13.815713345553688 21.016756464614602 21.56361853647251 0 0 0
1888 33 1 14.163506248959722 21.84128964461294 22.791644367920377 0 0 0
1889 33 1 15.405001280062569 21.2559270087927 23.418633655675848 0 0 0
1890 33 1 15.861904532337315 21.81014033008642 24.770363451332017 0 0 0
1891 33 1 16.99738532994508 21.03071295796776 25.441472180069113 0 0 0
1892 33 1 17.407447784213353 21.543741397664178 26.860772076563293 0 0 0
1234 11 1 14.760987188503572 14.268968711773866 30.23105178296613 0 0 0
7749 23 1 2.383649095971193 5.034919686880468 25.636020801536105 0 0 0
1216 11 1 1.6439984685815912 14.658823510532704 11.242236789201838 0 0 0
3481 40 1 17.56352363948208 12.81340578375339 14.203465674998874 0 0 0
303 4 1 6.654313086860716 3.9298658487493086 12.412837024918762 0 0 1
8201 55 1 7.095609461188354 9.466286254906418 31.966460474917536 0 0 0
219 3 1 3.570501746631211 1.738164643269083 14.694071881857406 0 0 0
2106 33 1 9.86426503078382 21.43947540031521 16.573756769096516 0 0 0
2107 33 1 11.118489717953171 20.89730551840674 17.29549882500475 0 0 0
2108 33 1 11.35279572437394 21.590862002551724 18.566875429054484 0 0 0
2109 16 1 12.238405674794475 23.511335004687243 25.464792303371652 0 0 0
2110 16 1 12.70374424354282 24.174390741562707 26.71450364030742 0 0 0
2111 16 1 13.576992322671916 23.273250209770463 27.619181396219666 0 0 0
2112 16 1 14.330571346099125 24.000994484992372 28.724500830744198 0 0 0
2113 16 1 15.087080139233468 23.251971527761043 29.77887401358436 0 0 0
2114 16 1 15.781414459595883 24.184178885235525 30.763667671347015 0 0 0
6380 56 1 0.7173555465540103 17.20721388708108 28.458556977956864 0 0 0
4082 2 1 16.171919199698806 17.135728309580575 12.35969177943948 0 0 1
986 10 1 2.848099792031824 9.850518710150126 13.25654519361939 0 0 1
2104 33 1 8.27015426539859 21.358931869309902 14.611634927904888 0 0 0
4540 34 1 14.224298027404378 23.282272785740627 14.844090344722526 0 0 0
7305 63 1 5.233552646814093 0.7660080216918609 29.745848345989305 0 0 0
8803 58 1 7.242308255583738 16.507203759859465 25.444062232256933 0 0 0
2561 64 1 18.397164353150202 0.6188379958211649 21.49214085240645 0 0 0
9651 64 1 10.441443580344332 25.167569867828927 29.528658838455183 0 0 0
397 6 1 14.295272516491071 6.25973375696798 29.004868138206835 0 0 0
2322 15 1 3.658183904628438 23.913144673640627 14.245408391898327 0 0 1
2327 16 1 7.56106591390922 23.354198227119724 19.38330185486921 0 0 0
2328 16 1 7.908599824903217 23.978062301044226 20.72887205428856 0 0 0
2329 16 1 8.979274956403499 23.25221954537092 21.522387567088366 0 0 0
2330 16 1 9.324054283311122 23.866048908356568 22.91867551787351 0 0 0
2331 16 1 10.600041749181138 23.409131786726075 23.493521445868268 0 0 0
2332 16 1 10.951764814649831 24.061209232025025 24.84904604660572 0 0 0
2333 18 1 11.026185532954303 26.024085707831905 18.84114844299654 0 0 0
2334 18 1 12.109630526921709 25.336014520779802 19.750975880529563 0 0 0
2335 18 1 12.674455203747193 26.0461235751585 20.949826380786085 0 0 0
2336 18 1 13.67372065670362 25.248383071563197 21.798832367586463 0 0 0
2337 18 1 14.1368370431642 26.075304316848364 22.979811924212434 0 0 0
2338 18 1 15.117331564645932 25.281657476578413 23.84017854980445 0 0 0
2339 18 1 15.999224830373134 26.04873162508157 24.736327628055676 0 0 0
2340 18 1 16.857232293642998 25.242710676270036 25.748941371293466 0 0 0
2550 17 1 6.334213338706457 25.47188035060748 11.296311797772056 0 0 1
9021 59 1 1.6876477949798923 18.301940499039436 23.36430830249501 0 0 0
3163 22 1 11.52573670259907 5.965511219533436 12.11769544829025 0 0 0
620 59 1 17.655481745688878 7.7481282060879755 28.026360970886714 0 0 0
5103 1 1 2.837853752956577 2.809734535320948 31.603507724050885 0 0 0
9340 63 1 2.0183298008700308 23.629118634352714 24.53997923490863 0 0 0
987 10 1 4.025931921728789 10.573936767954685 13.99084745950608 0 0 1
2554 18 1 9.26949117367911 25.372613764474497 15.51253736022203 0 0 0
2555 18 1 9.471138541886685 25.975140081428812 16.91537131602304 0 0 0
2556 18 1 10.519621684935354 25.21677161932746 17.675100263307616 0 0 0
2557 64 1 15.394696126690942 0.7414286628319363 17.198429755325023 0 0 0
2558 64 1 15.623037875122915 1.1651655216876575 18.65058025978194 0 0 0
2559 64 1 16.914488376024725 0.6789208392525289 19.281535467111624 0 0 0
4539 34 1 12.793811873477175 23.27769995340039 14.435130271926177 0 0 0
1232 11 1 13.335330800930992 14.323005369571677 28.00304107166494 0 0 0
395 6 1 12.949249205723726 6.04587063293849 26.701519220713877 0 0 0
8581 3 1 4.795005107571776 14.790070419606485 28.32133642978784 0 0 0
2341 18 1 17.48795851803607 26.184693684368156 26.80235615008536 0 0 0
2636 64 1 13.917328058637624 0.9630442255913554 15.182214479967342 0 0 0
2637 64 1 14.121030109953093 1.2755044337251835 16.65262186775702 0 0 0
8196 55 1 3.8080922444272955 10.518535662806151 26.55394963994553 0 0 0
5488 40 1 2.130475822664713 7.298222799178392 32.02093528691597 0 0 0
1227 11 1 10.388219654681496 15.123218845185203 22.354810633893415 0 0 0
7521 34 1 1.0157266723570761 3.1971105963936703 17.551533814732046 0 0 0
2941 22 1 12.90397278565003 6.178305180639367 14.384393394580549 0 0 0
2942 22 1 13.209536503511336 5.474089497360246 15.709187019832793 0 0 0
2943 22 1 14.380100389384177 6.168575480616239 16.430893770546042 0 0 0
4304 30 1 11.614282729728364 19.19529197372748 12.360985127907645 0 0 1
3705 13 1 17.545855152625887 15.107572837520292 20.43644590876107 0 0 0
6381 56 1 1.3670353101051842 16.41734378118106 29.631529911897154 0 0 0
2552 18 1 7.989717528010024 25.556518514451337 13.216557802220771 0 0 0
6382 56 1 2.301417281722955 17.099896406600738 30.622323510356285 0 0 0
2325 15 1 6.12533129702451 23.145118067383926 17.25028786685241 0 0 1
396 6 1 13.28900072310816 5.492778816926776 28.090356462735645 0 0 0
7522 34 1 2.012315589384389 4.019005592021172 18.410977345791032 0 0 0
7304 63 1 4.717936527078132 1.5767464377998226 28.54216754791376 0 0 0
8798 58 1 4.108921080891801 17.318562688296257 19.896936264194345 0 0 0
7307 63 1 6.913487257904849 0.9192476002822773 31.749167742646712 0 0 0
3323 26 1 14.30459067984763 10.541102997433962 16.63140649954836 0 0 0
3324 26 1 15.539037675471569 9.923015944849727 17.25229880404432 0 0 0
9253 61 1 0.6519833410381085 21.648386804827187 15.962598704745067 0 0 0
8194 55 1 2.291593467299189 10.67817544693282 24.5382131432534 0 0 0
3326 26 1 17.06210520992974 9.904636184968858 19.390195495661224 0 0 0
996 9 1 18.50413867443645 11.784190889900293 27.70915893604817 0 0 0
9029 59 1 7.67952364178204 18.22125392377006 31.47462987926292 0 0 0
2947 22 1 17.64670291547121 5.733829696739315 20.31789402084638 0 0 0
3400 26 1 13.085330511113176 10.64372543394675 14.286060943772153 0 0 0
3401 26 1 13.876189212619973 9.843298803924466 15.387338129655998 0 0 0
1231 11 1 13.277610075907743 14.875324823038923 26.545786819217966 0 0 0
3860 28 1 13.236670481283374 14.996953694968662 14.168644885761717 0 0 1
4545 34 1 17.130343596929638 23.36067320610834 20.719411634599005 0 0 0
314 36 1 18.488432958183232 4.0999192566474365 28.991322705668033 0 0 0
9344 63 1 4.714901431522586 23.57851436405181 28.89529908520657 0 0 0
2560 64 1 17.261685852984225 1.308078856042613 20.67710227972092 0 0 0
10 3 1 14.507739141057918 1.2811003255017195 30.1600201399646 0 0 0
2944 22 1 14.963393547811519 5.264924903734254 17.44465258551588 0 0 0
8198 55 1 5.374842530544285 10.22306965652671 28.503021263511364 0 0 0
1894 33 1 18.629667513660966 21.514150813019864 29.0351041362146 0 0 0
7302 63 1 3.3429318122075187 1.513712710947685 26.306790596806295 0 0 0
8802 58 1 6.8355361107711445 17.180530874546527 24.141524341856353 0 0 0
606 6 1 2.6947147063950103 5.834997632014676 13.730495671897 0 0 0
8795 58 1 1.4629581380493206 16.261724942887515 17.01852285093793 1 0 0
9022 59 1 2.1141815754135544 19.136865423782417 24.521259140346885 0 0 0
7984 54 1 11.636849870590785 7.839001307993992 32.257937542617945 0 0 0
4306 30 1 13.01705539920037 19.27305041639198 14.467302921844905 0 0 1
398 6 1 14.736303985167556 5.56921080483889 30.314027606477612 0 0 0
4087 31 1 17.182338753417657 18.895708900284486 19.330757835740947 0 0 0
2320 15 1 2.2335943002709016 23.820709462195218 12.067966839561867 1 0 1
9027 59 1 6.160982530449474 18.159123879580285 29.513340345859007 0 0 0
3858 28 1 11.79398017263488 15.081158213840293 12.163482362153118 0 0 1
12 3 1 16.33212455259699 1.3137605344597734 31.908827190983864 0 0 0
616 59 1 14.843649090113217 7.7283295176628934 23.668955493768312 0 0 0
1444 13 1 18.395043821490106 16.96384710263554 26.365958554026548 0 0 0
3702 25 1 15.264510876612508 11.953637342814561 11.276574361211221 0 0 1
4309 31 1 15.769428072995298 18.930002011745803 17.218928104640174 0 0 0
4310 31 1 16.00230813808619 19.38146852098414 18.653927024709905 0 0 0
8490 5 1 2.8433061411063942 12.092311264081793 19.477725971399337 0 0 0
2102 60 1 6.79469334546682 21.3211098315697 12.596776124665496 0 0 1
8584 3 1 7.043520064226323 13.709933289866271 31.39315716835795 0 0 0
904 9 1 5.938037094499807 9.96551655278341 17.32412556315092 0 0 0
9028 59 1 7.059730052996988 19.05813825072184 30.37375587185549 0 0 0
1673 14 1 17.219001083238542 18.560370556790563 31.431453208682417 0 0 0
4537 34 1 11.087782587754687 23.299851745885835 12.504185825197752 0 0 0
4538 34 1 12.492533510593779 22.897646363406228 12.973349469643871 0 0 0
8502 5 1 11.496336394186471 11.800202929079553 31.882769482193083 0 0 0
7535 34 1 11.866150564101165 3.3760249730898875 31.589702469623923 0 0 0
8801 58 1 5.804265417565412 16.42377431376735 23.33207319675459 0 0 0
9346 63 1 6.341684795048175 23.63526406971743 30.861355962997504 0 0 0
3703 25 1 15.990289734188973 12.843734687336092 12.291712412983232 0 0 1
829 59 1 7.226271077104459 8.233315178996683 11.964191933261072 0 0 0
2553 18 1 8.63765047433226 26.212464139669756 14.451542753224587 0 0 0
9343 63 1 4.365650137196498 22.82627499948465 27.626750404302985 0 0 0
8195 55 1 2.5865001409980257 10.007801424891213 25.910528835883397 0 0 0
4541 34 1 14.28363037623847 23.574877084629886 16.31847515168682 0 0 0
9262 61 1 7.15119360581682 20.761207726128017 25.408999674012875 0 0 0
4924 36 1 16.028086842861747 26.207408282224115 12.355040828493614 0 0 0
9266 61 1 10.339712444852578 20.81385099789817 29.352668256407778 0 0 0
9265 61 1 9.585778765714762 21.691520066356734 28.28594262694353 0 0 0
988 10 1 4.381610157683926 9.957227992568836 15.312219607101618 0 0 1
9261 61 1 6.564073160112834 21.575676842868333 24.230018397627692 0 0 0
9260 61 1 5.535726014218269 20.835626539000927 23.433004715950453 0 0 0
3704 40 1 16.94477609901443 11.978792440602358 13.155024080486488 0 0 0
1877 51 1 1.6438153914285438 18.616856184386357 11.43529913892042 0 0 1
7303 63 1 3.549354507779467 1.0127465561759368 27.749174630545067 0 0 0
2946 22 1 16.50061326688118 5.170939206499354 19.424048542808386 0 0 0
9652 64 1 10.924540122810512 25.829148563887326 30.838420061887465 0 0 0
1879 14 1 3.22528525442652 18.520986897079514 13.490752948779972 0 0 0
9264 61 1 8.885400794067099 20.830449092021553 27.302035992412076 0 0 0
8796 58 1 2.3342504378259874 17.2165829809778 17.888245795538975 0 0 0
9640 64 1 1.2637543030107634 25.925973103019523 18.805928658374803 0 0 0
7746 23 1 0.6724297635521349 5.972619955892163 22.225788787253872 0 0 0
619 59 1 17.496161528436225 7.925266626010786 26.522842737295555 0 0 0
9347 63 1 7.535924986773837 22.92127689746596 31.48597711874204 0 0 0
8800 58 1 5.326481231200533 17.256462238763156 22.193570918067095 0 0 0
9259 61 1 5.234926546327708 21.617343347779666 22.179084462083566 0 0 0
312 36 1 16.924723918993344 4.131909451986392 27.025737207504704 0 0 0
5934 54 1 2.0537486900333817 12.33473849939719 30.212379674545826 0 0 0
994 9 1 16.993410211068536 11.581701420015246 25.616692391036736 0 0 0
9646 64 1 6.456468786574127 26.340427167413377 24.444374774614502 0 0 0
1878 14 1 2.2397366989681964 19.35045660342426 12.61186993736049 0 0 0
5102 1 1 1.5246008286456671 3.3189892572184245 31.119317663532815 0 0 0
310 36 1 15.626294735979577 4.136574466024691 24.833224517896532 0 0 0
7748 23 1 2.227570234089195 5.666201585678977 24.2319265121032 0 0 0
618 59 1 16.208449360239886 7.631311261328069 25.792765287836502 0 0 0
8193 55 1 0.9288484967030703 10.209296520765417 23.882441544840482 1 0 0
1228 11 1 10.714413884586763 14.403976257048308 23.68264593186028 0 0 0
9025 59 1 4.429988690950168 18.246556896532997 27.529015834918535 0 0 0
1207 39 1 9.152519045464235 12.950882424032919 13.83899905876045 0 0 1
1655 12 1 7.9776906527441405 16.510423515641133 13.38831065144419 0 0 1
1226 11 1 9.036115946530522 14.779601545185207 21.768770296542463 0 0 0
8807 58 1 10.27015036382363 16.324846312489793 29.520701946006913 0 0 0
839 9 1 16.63088810780689 9.881238479378181 31.67428026090877 0 0 0
7306 63 1 6.552717859461328 1.3064003115854932 30.311298108612103 0 0 0
985 10 1 2.444428608677495 10.520669084710425 11.9591993091257 0 0 1
5935 54 1 2.3520269060057197 11.833234222787414 31.65362676511439 0 0 0
7144 49 1 1.3033203214300542 25.342584874102755 29.727415937339153 0 0 0
8806 58 1 9.818463633534357 17.001872847280193 28.210248273962804 0 0 0
9268 61 1 11.90537087680524 20.690746092106814 31.36013460073528 0 0 0
9649 64 1 8.734682583816483 25.181704673733535 27.514340342946763 0 0 0
9339 63 1 1.3907830763970017 22.84618217364438 23.341530248639053 1 0 0
9342 63 1 3.3102462247858075 23.5990524988328 26.781063533496955 0 0 0
7755 23 1 7.022688849385427 4.961098893219639 31.883115443925295 0 0 0
7523 34 1 2.5650372079143438 3.2793257463404326 19.60661072418583 0 0 0
7524 34 1 3.5649363157801552 4.036004507985203 20.48850263104694 0 0 0
7525 34 1 4.058719967322512 3.2510767750654894 21.687543757083702 0 0 0
7526 34 1 5.128345696599527 4.097646630148709 22.380431489711732 0 0 0
7527 34 1 5.765755817367825 3.4408138433861355 23.60225883414204 0 0 0
7528 34 1 6.759511011772485 4.217909261985988 24.44666531884117 0 0 0
7529 34 1 7.155049400318003 3.521201258964425 25.749314710647763 0 0 0
7530 34 1 8.39561814343797 4.1465683799498025 26.41915525740854 0 0 0
7531 34 1 8.709212583908997 3.2102688629148513 27.547802062449193 0 0 0
7532 34 1 9.519515147652786 4.0167635914108235 28.56706378342857 0 0 0
7533 34 1 10.318429278008763 3.1586047533427295 29.459845482897183 0 0 0
400 6 1 16.1934572080157 5.425262131114015 32.16225855494373 0 0 0
9648 64 1 8.112347672312849 26.1590231480094 26.494792925234158 0 0 0
8576 3 1 1.203170270970797 14.269541213421423 23.119532600935756 0 0 0
1229 11 1 11.980404731419998 14.866695032413263 24.41009944870052 0 0 0
8575 3 1 0.8135284084881074 15.125796900230688 21.949246521529453 1 0 0
3399 26 1 12.547538932488447 9.738458567062276 13.141195793605162 0 0 0
9024 59 1 3.677471502551907 19.171356985231654 26.61110624237119 0 0 0
7145 49 1 1.6081713617193114 26.087187675106314 30.99719379999376 0 0 0
4542 34 1 15.714646252533496 23.537708387427283 16.913031072094977 0 0 0
7752 23 1 5.1841974713138175 5.769341964196473 28.509619346048428 0 0 0
7753 23 1 5.627719658891207 5.109347214241309 29.807943919488675 0 0 0
7754 23 1 6.671756156498104 5.8368159948338 30.68519874630268 0 0 0
8488 5 1 1.3140805797894117 12.190746331977984 17.391611445106996 0 0 0
828 59 1 5.878513349879104 7.762742768613131 11.396222001532218 0 0 0
1235 11 1 16.184678713677016 14.427711210043975 30.74865940079099 0 0 0
9644 64 1 4.818503224418054 26.27570442314787 22.6985080599963 0 0 0
218 3 1 3.1377732151792577 1.035183940844908 13.409028180074873 0 0 0
7534 34 1 11.028042966560934 4.066285996120376 30.543278003560296 0 0 0
8797 58 1 3.12648161497964 16.551852079344044 18.97265802038333 0 0 0
378 36 1 7.130017813593275 3.23596364752509 13.643333607908508 0 0 0
8579 3 1 3.4671888473808874 14.896544496266731 26.22781623831779 0 0 0
9023 59 1 3.0264476348300016 18.379179103599913 25.480296746194682 0 0 0
7972 54 1 2.653447327343434 8.21067875801532 19.803946968114793 0 0 0