LAMMPS data file via write_data, version 23 Jun 2022, timestep = 11111117

9706 atoms
2 atom types
9690 bonds
3 bond types
9674 angles
3 angle types
9658 dihedrals
3 dihedral types

0 36.89775039 xlo xhi
0 26.67072 ylo yhi
30.020406662262218 206.73119773764515 zlo zhi
0 5.559706255545085 0 xy xz yz

Masses

1 14
2 15

Pair Coeffs # lj/cut/omp

1 0.0914 3.95
2 0.1947 3.75

Bond Coeffs # harmonic/omp

1 449.5 1.53
2 449.5 1.53
3 449.5 1.53

Angle Coeffs # harmonic/omp

1 62.0967 114
2 62.0967 114
3 62.0967 114

Dihedral Coeffs # opls/omp

1 1.411 -0.271 3.145 0
2 1.411 -0.271 3.145 0
3 1.411 -0.271 3.145 0

Atoms # molecular

1 2 1 8.768943788567094 24.923045237473506 33.72359818805582 0 -1 0
2 2 1 8.488503946973646 25.50896661769885 35.08807399508048 0 -1 0
3 2 1 9.735182765740694 25.789568348246537 35.91564282952546 0 -1 0
4 2 1 9.453245404764727 0.07730518163933355 37.095607616410305 0 0 0
5 2 1 10.564657878647978 0.15336857420889008 38.08656037657913 0 0 0
6 2 1 10.416525558836616 1.3934420822742937 38.943942246709874 0 0 0
7 2 1 11.528684665418645 1.3867612129188844 40.01400614016789 0 0 0
8 2 1 11.281440116587474 2.380286368892866 41.11727621102035 0 0 0
9 2 1 12.40172140703432 2.4408620544270123 42.166004268751166 0 0 0
10 2 1 12.25196769867314 3.5862779246263696 43.23970745826131 0 0 0
11 2 1 13.337683063766983 3.5064279367270825 44.22257583312145 0 0 0
12 2 1 13.100398653357876 4.635567093105285 45.287937440206534 0 0 0
3268 25 1 17.037570810560354 10.218659224006677 37.70726735049373 0 0 0
9045 17 1 6.263293508518937 19.85371490224695 37.96121287922561 1 0 0
556 55 1 17.37272744796033 11.465939889642055 44.85072300832395 0 0 0
6003 44 1 1.4695738045686426 14.85287907323978 45.70451245892106 0 0 0
457 52 1 8.196004948653265 1.9772499479489596 33.36864366147194 0 0 0
6002 44 1 1.811072927476029 14.128757219681145 44.36778147042408 0 0 0
7683 6 1 2.418374676743145 5.18156464689796 39.382186596126076 0 0 0
8442 35 1 0.7826090374294938 13.507390669822557 37.30176518907201 0 0 0
222 2 1 5.557803397302375 25.397627759808678 31.639076258420122 0 -1 0
223 2 1 6.666565217425026 25.69161731708852 32.585278287045035 0 -1 0
224 2 1 7.5613465862805525 24.51856240785051 32.95647328686937 0 -1 0
8604 12 1 1.0151065564551829 16.092449552698504 33.52016789450851 0 0 0
305 53 1 12.523669691959563 26.422791101177978 32.5911215599495 0 -1 0
306 53 1 12.070137422126592 0.8735392356773254 33.5376298267183 0 0 0
307 53 1 12.945610128181269 0.8076596983556497 34.77267719646857 0 0 0
308 53 1 12.686058159256593 1.9843970365724375 35.70957085180309 0 0 0
309 53 1 13.694742316574388 2.0416682979069876 36.87007067701266 0 0 0
310 53 1 13.583387623864088 3.1818167984819983 37.90447895954387 0 0 0
311 53 1 14.67476219402015 3.1874345018124464 38.89931942979398 0 0 0
312 53 1 14.820001961532245 4.4831300207998455 39.61818212012601 0 0 0
313 53 1 15.48631697960599 4.408303162953488 41.006529067907636 0 0 0
314 53 1 15.279232662034868 5.682929646878909 41.78377203125191 0 0 0
8824 58 1 0.5748589589023448 18.360676113158764 36.794748587682136 1 0 0
9050 17 1 8.164762998351796 23.30260883428562 42.97577014125877 0 0 0
9496 63 1 5.188023677001487 24.337547756591544 36.90046085419276 0 0 0
3786 39 1 15.046944642583233 11.552980911626264 31.368133439962417 0 0 0
9039 14 1 1.4949821236410121 20.781061675602018 33.406558328238766 1 0 1
1433 9 1 7.41059673703226 11.405425946861495 31.981711348551983 0 0 0
4542 31 1 17.730701587891655 23.913604557922298 37.770082720531505 0 0 0
383 52 1 10.022182778028139 5.613520793492692 38.23465194961325 0 0 0
384 52 1 11.194463798455168 5.508567094069242 39.2744756191405 0 0 0
385 52 1 11.249356564263223 6.731487127334137 40.175571099817546 0 0 0
386 52 1 11.902743929150976 6.4214945876326 41.56475453305646 0 0 0
387 52 1 11.934304222900384 7.680631379776189 42.493633755970706 0 0 0
388 52 1 12.834972082426328 7.581597850719848 43.73455834817345 0 0 0
389 52 1 12.743073852736625 8.899855283086694 44.403888525288316 0 0 0
390 52 1 13.87457411811994 9.07948207887792 45.40448290840665 0 0 0
6694 48 1 1.1378355416284136 23.544471586742617 45.86436177963467 1 0 0
219 2 1 2.3435487934499712 0.5845394938423984 30.73244142675005 0 0 0
9497 63 1 6.369740233243483 24.74368670873609 37.68892941188522 0 0 0
8826 58 1 2.4155487551158705 17.144778031901787 38.06221251567628 0 0 0
8833 58 1 5.441549995371941 22.099397495676275 44.828740943711495 0 0 0
8216 55 1 2.6791177026109967 10.793504001528024 33.70024321090118 0 0 0
5233 36 1 1.3133004640283028 5.104653214058914 44.106049257793565 0 0 0
9502 63 1 8.18250659785831 1.3268128228035234 42.94689400725136 0 1 0
783 6 1 13.11365941540775 14.839643365078036 46.69584313928398 0 0 0
1444 12 1 16.411365928723363 20.661742695493558 43.86182702468671 0 0 0
2054 17 1 13.988393839230167 0.37511328321693027 45.799384792127334 0 1 0
458 52 1 8.669144813035382 3.213674147020884 33.99531153880297 0 0 0
459 52 1 9.382492666385915 3.031142379194119 35.34150006583254 0 0 0
460 52 1 9.444115897946038 4.342965772826202 35.99234296467509 0 0 0
461 52 1 10.28047136772843 4.431458756560882 37.28901281611698 0 0 0
2262 17 1 4.3447754229965305 22.363447414388233 31.11678650076498 0 0 0
3485 25 1 15.451279019438365 5.978784047014327 30.37742091603345 0 0 0
543 55 1 11.135390637471534 4.0887132608255135 31.333344985096172 0 0 0
544 55 1 12.194938033856682 4.116492724677573 32.394596041819284 0 0 0
545 55 1 11.769315893217737 5.196797871285028 33.4944317134336 0 0 0
546 55 1 12.919601209477438 5.368579350047641 34.42767950680663 0 0 0
547 55 1 12.586012829956472 6.373531531372381 35.594688595156164 0 0 0
548 55 1 13.807085659188363 6.784520999435102 36.41011771878532 0 0 0
549 55 1 13.450303428165801 7.690492069732187 37.52732899069241 0 0 0
550 55 1 14.60771667255624 7.8155454820856995 38.45175013627604 0 0 0
551 55 1 14.240667698150654 8.656104310742183 39.71362466244784 0 0 0
8443 35 1 2.0432209362142846 12.84168755822659 36.90861052362235 0 0 0
998 8 1 18.10518099141799 16.82515883381375 47.03102699242905 0 0 0
3715 39 1 18.04707400916659 16.193911578826267 39.841930658523026 0 0 0
5620 42 1 0.6340794597767566 9.02930826675673 43.56381126846409 0 0 0
8063 54 1 6.190254182857149 14.355330359738069 47.35861759276298 0 0 0
9279 61 1 4.535679819269575 24.560317029825665 42.25557877076785 0 0 0
9276 61 1 2.4788779163083796 23.117244362113563 39.25855980743444 0 0 0
2279 19 1 16.577665079815258 2.6323132136864147 44.249517028731816 0 1 0
4759 10 1 14.838954870344457 19.41902707404727 30.722559635212196 0 0 1
767 6 1 5.194166093236958 7.695074528013307 31.20862509077084 0 0 0
768 6 1 6.566686897043282 7.916206176049326 31.797603854551895 0 0 0
769 6 1 7.351430032192342 6.592649546318892 32.120672649871835 0 0 0
770 6 1 8.481420209260369 6.990247277383645 33.02686951652816 0 0 0
771 6 1 8.192826402515797 7.742280797577756 34.3326657454338 0 0 0
772 6 1 9.461105657185778 8.146805065570948 35.073309165565576 0 0 0
773 6 1 9.233262963738209 8.908502337213475 36.36700112624802 0 0 0
774 6 1 10.433075462846109 9.036117440152552 37.28880577797669 0 0 0
775 6 1 9.942629683897998 9.813026276977086 38.539989530044465 0 0 0
776 6 1 11.048733205696397 10.140259559846317 39.52122616089784 0 0 0
777 6 1 10.72995549756142 10.886727385429287 40.70760470686824 0 0 0
781 6 1 12.40494264909844 13.171134171557764 44.949623124235586 0 0 0
996 8 1 17.206984193314074 16.024783855791075 44.78130318479031 0 0 0
3712 39 1 17.60949649450972 13.815736343932821 36.77113585603554 0 0 0
8450 35 1 5.3946753882096345 16.389330931148095 44.111424243040915 0 0 0
4312 28 1 15.939526381307648 17.008154104966536 34.22928795243588 0 0 1
559 55 1 18.861864506009116 11.70040820945269 46.96866810489625 0 0 0
3270 25 1 18.062114067180207 11.305997026959242 39.84868755999921 0 0 0
6695 48 1 2.3753611128595553 23.855883951306946 46.704610868981675 0 0 0
538 4 1 3.302861043271976 4.24803944532451 30.19124681639397 0 0 1
9038 14 1 0.3874845551257753 20.52170003928911 32.39375239031813 1 0 1
989 8 1 13.683826237894149 12.419197654186444 37.595045081962496 0 0 0
990 8 1 14.601570514149007 12.393046540836872 38.79022345369184 0 0 0
991 8 1 14.276596706492988 13.467998202012135 39.825937075614505 0 0 0
992 8 1 15.128144895992962 13.470132864848868 41.080115026366684 0 0 0
993 8 1 15.288105596274368 14.967944850035899 41.6476907894923 0 0 0
994 8 1 16.02059825974582 14.807233037854646 42.862883477089056 0 0 0
995 8 1 16.467718300078033 16.21409179411597 43.44661650012307 0 0 0
4543 31 1 18.718053668803712 23.938666767687 38.98451128798349 0 0 0
3036 37 1 14.891830326934114 2.5036414377440313 31.514843183268272 0 0 0
7237 58 1 4.069103781525445 2.722342651144189 43.36311223771405 0 0 0
2498 18 1 17.373860540469764 1.2683103932256785 37.726282325623615 0 0 0
9049 17 1 8.32065534199674 22.35921963435265 41.81200326592265 0 0 0
9280 61 1 4.1748382751741255 25.15531082991199 43.54594577067685 0 0 0
319 53 1 17.78444274264115 8.015284959678953 46.94706960478078 0 0 0
7450 61 1 0.2104683262938022 2.7251002356909027 32.92398113304303 1 0 0
9498 63 1 6.236347275929264 25.68288969755868 38.92230931647404 0 0 0
1211 8 1 12.71659074874581 11.114845387904204 35.664951008520795 0 0 0
1212 8 1 13.919044269446838 11.300901748174413 36.61776088926979 0 0 0
1213 9 1 9.011679196357399 13.292285237315207 36.27307482784599 0 0 0
1214 9 1 9.791553693982284 13.19491439007365 37.55242662744462 0 0 0
1215 9 1 9.817055206786819 14.549671049079963 38.320973565433626 0 0 0
1216 9 1 10.729499390037782 14.553604574981279 39.543420760921315 0 0 0
1217 9 1 10.637596920107427 15.738199983204552 40.486937916281505 0 0 0
1218 9 1 11.747122870547285 15.821449891804033 41.482035859748855 0 0 0
1219 9 1 11.69743038664389 16.89063314846137 42.54883132105477 0 0 0
1220 9 1 12.976647897354987 17.040467161781446 43.34968887558391 0 0 0
1221 9 1 12.812114345427737 18.1321212790155 44.38620559503643 0 0 0
1222 9 1 13.966288497702152 18.423424210603958 45.44273066196341 0 0 0
539 4 1 4.162853009655133 3.8637192020539843 31.388884998507002 0 0 1
9274 61 1 1.6518491096377426 21.77132333108314 37.17116339835486 0 0 0
1656 12 1 11.337407831837142 12.97947045480515 31.87848081600139 0 0 0
8218 55 1 4.948290887166949 10.030493842075785 34.41197032425767 0 0 0
8217 55 1 3.580888476898003 10.511234716219086 34.856756767748536 0 0 0
8451 35 1 5.16127826721919 17.415417059678997 45.113538567594034 0 0 0
779 6 1 11.673335105289318 11.953590193095003 42.94067473079052 0 0 0
3262 25 1 15.079194950884766 6.646313914113901 31.629928464437143 0 0 0
7972 33 1 0.34439331344183594 7.023496671515725 32.73502421230873 0 0 0
455 52 1 6.290733140783291 3.331806194359884 32.4551965127595 0 0 0
1434 9 1 8.17335997924229 11.136002083616557 33.226232056802985 0 0 0
1435 9 1 8.19031784967995 12.323153461948174 34.18291085916626 0 0 0
1436 9 1 9.145014236739097 12.103450147324336 35.34060926375597 0 0 0
1437 12 1 13.695258329353917 16.03758482880149 36.88949918366198 0 0 0
1438 12 1 13.4166430069684 16.6487900639915 38.23491290604703 0 0 0
1439 12 1 14.626893173416747 17.189551563812486 38.84690221761039 0 0 0
1440 12 1 14.552319561237638 17.966800530144457 40.19353564300917 0 0 0
1441 12 1 15.771130065494274 18.480854450101784 40.99116594060193 0 0 0
1442 12 1 15.384425318302393 19.54153858046606 41.979753512460626 0 0 0
4309 28 1 15.304636763914687 15.214657304505353 30.965624184151324 0 0 1
3713 39 1 17.210321820473546 14.805643863069701 37.80511425336004 0 0 0
3867 5 1 14.862768864969079 10.31345552285317 30.674820803490558 0 0 1
7681 6 1 1.4140975131586386 3.7703000245552514 37.54307118932909 0 0 0
9041 14 1 3.6475412997931125 19.8633076183641 34.394756862454116 1 0 1
1432 9 1 6.15326161024169 12.234957015388371 32.3133371046016 0 0 0
317 53 1 17.193956658909357 6.711055009828929 45.014220229539575 0 0 0
316 53 1 16.180834812914288 6.731829524134146 43.836999913197445 0 0 0
1657 12 1 12.297489884776434 13.494825499936244 32.88546900639817 0 0 0
1658 12 1 11.809721869585722 14.308821946017309 34.03755531942894 0 0 0
1659 12 1 12.86566034148053 14.685896105182001 35.00000584349862 0 0 0
1660 12 1 12.41821944359157 15.528401660567745 36.21715001127991 0 0 0
1661 13 1 9.357337938533798 17.188859123217604 35.214147239118354 0 0 0
1662 13 1 9.036802758586337 17.821667231352595 36.59181447996224 0 0 0
1663 13 1 10.172093354570869 18.58688214978578 37.238837332299155 0 0 0
1664 13 1 9.71647212093721 19.155192257332025 38.521887792318715 0 0 0
1665 13 1 11.00109717718416 19.52022089463265 39.239745846061346 0 0 0
1666 13 1 10.71452608690614 20.057893578375147 40.648398477113 0 0 0
1667 13 1 12.030756994895532 20.350116662002367 41.30615743115188 0 0 0
1668 13 1 11.894503866615626 20.8937603132297 42.6950471723936 0 0 0
1669 13 1 13.017270571179177 21.67900598823985 43.32547639085467 0 0 0
1670 13 1 12.630848028635132 22.37229259692615 44.59402050162223 0 0 0
540 4 1 5.612625808317787 3.5647828698347133 31.11721516422783 0 0 1
8214 55 1 0.33990281600401584 11.604524887682986 32.737250426095045 1 0 0
2491 18 1 14.99628553739136 24.476395928466143 30.31614146665351 0 -1 0
552 55 1 15.445210874350373 9.017623500176931 40.54368789008559 0 0 0
1832 16 1 17.579088269147743 25.47429819503131 45.391021151956814 0 0 0
9048 17 1 6.940346650947607 22.093400133813574 41.1830214527791 0 0 0
9042 17 1 4.1209257506414785 18.576890725370383 35.06299113395852 1 0 0
8611 12 1 6.086300615971122 16.611074329849707 38.733237100868685 0 0 0
8828 58 1 3.3677998820166466 18.49659088217699 40.12063895781796 0 0 0
1736 13 1 6.307298863408563 16.624076908500147 32.3605872045779 0 0 0
1737 13 1 7.189746753346195 15.404808619785475 32.63364228282564 0 0 0
1738 13 1 8.45107405289126 15.826234063868577 33.41750392274431 0 0 0
1739 13 1 8.147409159904559 16.453759607944022 34.76431798683359 0 0 0
1819 16 1 11.6799220300854 17.5000069913786 32.33502499606279 0 0 0
1820 16 1 12.79364514678953 18.193664344472236 33.13576678468257 0 0 0
1821 16 1 12.25754246616189 18.967176931638743 34.36707146384682 0 0 0
1822 16 1 13.47143027395947 19.306279146620636 35.19040227257937 0 0 0
1823 16 1 13.118334272941604 20.179479721841897 36.33531864175929 0 0 0
1824 16 1 14.320062187976658 20.469733124443074 37.22996774891 0 0 0
1825 16 1 14.076525888159745 21.51968750180131 38.35025685713282 0 0 0
1826 16 1 15.185451950555962 21.653216768047997 39.3286172775739 0 0 0
1827 16 1 14.819248516542542 22.84891053455614 40.257054896365695 0 0 0
1828 16 1 15.92277322288604 23.014804613958223 41.2681054470762 0 0 0
1829 16 1 15.631610094557978 23.948942437586965 42.35768503753849 0 0 0
555 55 1 16.39274939224117 11.263000463932299 43.712333311158204 0 0 0
9501 63 1 8.239864021416171 0.22668321906564576 41.857449328376475 0 1 0
8605 12 1 1.97033452489693 14.94662600548831 33.5604373557157 0 0 0
8834 58 1 6.311656456862215 21.953262490276146 45.98766439951861 0 0 0
2500 18 1 18.22435349742117 2.576427483725739 39.70831393718606 0 0 0
6000 44 1 0.6683700835597993 12.664336153732489 42.655899480718226 0 0 0
2263 17 1 5.011515229935687 21.1028609659982 31.42316585574888 0 0 0
2043 17 1 7.890187391423876 20.951379016347136 34.57494138286668 0 0 0
2044 17 1 9.046344036125275 21.66614052527972 35.22589484170673 0 0 0
2045 17 1 8.710853608882232 22.32228008928472 36.517920074961104 0 0 0
2046 17 1 9.993720210787679 22.66437437488303 37.32171364397491 0 0 0
2047 17 1 9.769530325322847 23.52201639495006 38.57428425809566 0 0 0
2048 17 1 11.000734885176302 23.5748301413919 39.38870435747891 0 0 0
2049 17 1 11.0423919635071 24.460627033767196 40.69414671988188 0 0 0
2050 17 1 12.2571036303035 24.646301484578455 41.62455775055985 0 0 0
2051 17 1 12.05603628765964 25.632520978191604 42.65216969373307 0 0 0
2052 17 1 13.118208618656487 25.796761487975463 43.7114920299196 0 0 0
2499 18 1 18.60610239615747 1.6615418241605575 38.610552671156775 0 0 0
4310 28 1 15.089952618548681 15.956440768960809 32.22225375774503 0 0 1
3711 39 1 16.628606623377813 13.6236641372502 35.64907831711608 0 0 0
220 2 1 3.2846256574666772 26.071354452285075 30.819480284330595 0 -1 0
1655 11 1 10.592073435586519 14.215225369093925 31.31462223036554 0 0 1
1735 13 1 5.090221751759568 16.270755197722906 31.59613669504965 0 0 0
7235 58 1 3.234651213405361 1.6171041943983504 41.32555803010388 0 0 0
5235 36 1 2.188240720058308 6.356651686174389 46.2421514776713 0 0 0
2260 17 1 1.9859685798978504 23.156527859204786 30.452802844367483 0 0 0
9506 63 1 9.610278268180949 3.4817907311007885 47.28814920252596 0 1 0
2264 17 1 6.215250361502891 21.29002548441426 32.29157118152074 0 0 0
2265 17 1 6.773355190079458 19.913775723726406 32.59310580746488 0 0 0
2266 17 1 8.034795451080203 20.089304749824183 33.38685669369774 0 0 0
2267 19 1 11.068407752129604 21.84461801892581 32.340997147788855 0 0 0
2268 19 1 12.229670618506544 22.64060801383168 32.921526743516985 0 0 0
2269 19 1 11.888502077760917 23.60221920285543 34.02576195297049 0 0 0
2270 19 1 13.015388800729491 23.843902473727052 34.97888021192149 0 0 0
2271 19 1 12.690247452397076 24.68327570077105 36.23921513011948 0 0 0
2272 19 1 13.971518279797602 24.914292748555187 37.09862789679232 0 0 0
2273 19 1 13.746339941285763 25.619097896068535 38.394831841559046 0 0 0
2274 19 1 14.955155364565178 26.114168255679772 39.07181703124545 0 0 0
2275 19 1 14.763168102834717 26.659794482433718 40.46782015446427 0 0 0
2276 19 1 16.034860202201337 0.37330887324810536 41.144306458123495 0 1 0
2277 19 1 15.864063963726725 1.3787428133208555 42.347734588346896 0 1 0
8052 54 1 0.7434803352354928 9.345186823864573 37.04505857656836 1 0 0
8449 35 1 4.171852645164741 16.263969584982053 43.18090204195887 0 0 0
2042 16 1 10.683884041899962 18.39843302248433 31.57252893278607 0 0 0
4544 31 1 18.65968872211933 24.96428760849968 40.06413170430119 0 0 0
9277 61 1 3.683647477936067 23.60794669400646 40.041082378098935 0 0 0
7451 61 1 1.2642557358638762 3.1322775793648034 33.88849699427268 1 0 0
8230 55 1 9.752858372413126 16.821253642554144 46.8257193759518 0 0 0
1443 12 1 16.718564852938545 19.773498685018986 42.625475368212 0 0 0
2817 37 1 17.511967006241555 5.238578248430701 36.34392084533201 0 0 0
2493 18 1 16.325365837153548 24.859020654507344 32.45699301669072 0 -1 0
2494 18 1 15.831753798922465 25.655710908725727 33.647416456798766 0 -1 0
2495 18 1 16.991451062659447 26.100652736337878 34.458779108399796 0 -1 0
2496 18 1 16.6207775478651 0.29125227730048747 35.669440718797325 0 0 0
9499 63 1 7.420462112724049 25.723373674441152 39.873067525603815 0 0 0
1209 8 1 12.200154754334072 9.676287194986587 33.573361116112 0 0 0
8215 55 1 1.3523709700039896 11.516213778287288 33.908474924564594 1 0 0
8444 35 1 3.0664149380757406 12.70761352194054 38.06039193198518 0 0 0
4311 28 1 16.37465389876106 16.149496740670653 33.08788763513979 0 0 1
1672 13 1 13.371549277262485 23.63558246547613 46.873798095297964 0 0 0
2819 37 1 18.50243296580367 6.140663423888959 38.542888557271525 0 0 0
5623 42 1 2.5841666349137036 10.813985042736386 46.36905157313825 0 0 0
2814 37 1 15.84460839701479 3.258398179491297 33.76823409871648 0 0 0
2815 37 1 17.01400671880179 3.740047441009648 34.50077005727694 0 0 0
2816 37 1 16.445652134327606 4.361138707735962 35.76421818994835 0 0 0
4315 29 1 18.048126827148298 18.606328091378113 36.97108364167565 0 0 0
4314 29 1 16.87010438552796 18.230661565350847 36.199769214149946 0 0 0
8616 12 1 9.175334683389865 19.04715363592376 43.8233733139668 0 0 0
1431 9 1 5.389955448668795 12.326244139808145 31.03492747540558 0 0 0
7465 61 1 10.196544639110662 6.6890183611335665 46.20699853724626 0 0 0
6308 64 1 0.7217373949073211 17.34597963202336 42.63587892676083 1 0 0
3037 37 1 16.117119226881513 2.689756251912033 32.407264231934995 0 0 0
318 53 1 17.17503820049929 8.116086565674633 45.60577514182357 0 0 0
9273 61 1 0.4589655446242927 22.645870566275182 36.94585167710519 1 0 0
3267 25 1 17.673985370219526 9.375764251543018 36.645389865162485 0 0 0
2053 17 1 12.813462793316658 0.04445808697942982 44.911826622931756 0 1 0
9043 17 1 5.407949841005475 18.712619370382537 35.83167383106627 1 0 0
3263 25 1 16.259760949113367 6.785807098930919 32.48319207862659 0 0 0
3264 25 1 15.992622777830585 7.5712108529461375 33.75648873220675 0 0 0
3265 25 1 17.128706972350187 7.950250552632719 34.572962681631125 0 0 0
3266 25 1 16.85050979458134 9.147827336329348 35.4075239913726 0 0 0
2818 37 1 17.39959006855991 5.303988962827655 37.862181110608326 0 0 0
1430 9 1 4.201927267659002 13.25657346758689 30.96083406438154 0 0 0
9051 17 1 9.265495145846016 23.642044346353487 43.93898202872113 0 0 0
7232 58 1 2.3114728077607594 26.43683994653795 38.05261826713322 0 -1 0
7230 58 1 0.2552488154885484 0.4416552858638515 36.87303416742012 1 0 0
558 55 1 18.075716785472512 12.980218160846276 46.68064624936142 0 0 0
8832 58 1 5.287772360499171 20.749008265423573 44.077062834179074 0 0 0
9492 63 1 2.159408369960236 23.92247797441814 34.183397982436 1 0 0
1830 16 1 16.774108800925617 24.262432081549935 43.29585543994404 0 0 0
3710 39 1 17.008304876946973 12.570951304972112 34.618735508046505 0 0 0
2041 16 1 9.450451030851811 17.868084688840643 30.765864701168763 0 0 0
391 52 1 13.525166500355002 9.98498899168449 46.60701926897279 0 0 0
7076 48 1 2.490990428287544 1.590578206617952 46.666315055873824 1 1 0
8054 54 1 2.9039652523849977 8.646126258759452 37.99155488315365 1 0 0
456 52 1 7.44467811833314 2.473183039516543 32.135378023830135 0 0 0
780 6 1 12.901338074102146 12.337803086830782 43.717535343339975 0 0 0
3269 25 1 18.268793128895705 10.589013631399371 38.57431540237684 0 0 0
3787 39 1 16.214996471730306 11.506590568654019 32.426507539910496 0 0 0
3788 39 1 15.971686975595595 12.539710330182677 33.53157117404762 0 0 0
7973 33 1 1.6289295193982234 7.42511136247359 33.35109678567752 0 0 0
3714 39 1 18.281729510280393 15.064533584034132 38.827747222913004 0 0 0
2820 37 1 18.3854809872176 6.478992104554532 40.02381543891137 0 0 0
4761 31 1 16.05320629176006 20.195042362495517 32.76351701222004 0 0 0
9284 61 1 6.153936212679532 0.9431212539842743 47.5494527210066 0 1 0
2281 19 1 17.302461390057765 3.6838217375433544 46.40343470744334 0 1 0
7691 6 1 5.97261468341177 9.978949853276582 47.17759414630025 0 0 0
7072 48 1 0.5310191875432051 26.083550370223822 42.39577261122694 1 0 0
8062 54 1 6.241223338839797 13.162266297611987 46.3625085032497 0 0 0
2497 18 1 17.832181774235323 0.4774541866201387 36.48365979711504 0 0 0
7974 33 1 2.511052321657583 6.26541101297098 33.84681154651043 0 0 0
4313 29 1 17.134763191174166 17.371418525646668 35.00354379894646 0 0 0
7077 48 1 2.0681218553031004 2.7166017306925685 47.58632244060569 0 1 0
1223 9 1 13.470759753338172 19.14246994893561 46.75618072543475 0 0 0
8615 12 1 8.116204249965824 18.906186691945447 42.81796658059487 0 0 0
8829 58 1 3.235021077310031 19.687714782469566 41.054124881836714 0 0 0
2278 19 1 17.018904487258727 1.5751368091114677 43.27599382818801 0 1 0
7453 61 1 3.4798875105121616 2.195182619268799 34.955597922351956 0 0 0
4540 31 1 16.903548554478363 22.57122841167771 35.8010466820294 0 0 0
7236 58 1 4.509089221848302 2.0170319869364057 42.127830838242176 0 0 0
6310 64 1 1.6335655865189567 18.4551740057371 44.592942384298524 1 0 0
8058 54 1 4.587509769996859 10.999047189129632 42.20874190699589 0 0 0
9278 61 1 3.3586507331839 24.147358223663822 41.415336776960764 0 0 0
8445 35 1 2.8004949533221293 13.57672105334361 39.304973265140276 0 0 0
8061 54 1 5.363878212391074 13.365846075038592 45.126941081125054 0 0 0
8610 12 1 6.367467264455827 15.690056036529853 37.57318948410882 0 0 0
4762 31 1 16.119911464978458 21.320118094489633 33.81871589468637 0 0 0
4763 31 1 17.148545719777932 21.413263858685077 34.924174019101756 0 0 0
8830 58 1 4.239991732769714 19.571317268687945 42.24217674664705 0 0 0
8612 12 1 7.177190727489366 16.750530549701946 39.819723570888854 0 0 0
1208 8 1 12.54473586059273 8.554733268715749 32.69487825494881 0 0 0
7686 6 1 4.508342131139301 6.189512806842165 42.190961349046205 0 0 0
8831 58 1 4.292083670461615 20.883062087301706 42.97676025347982 0 0 0
7685 6 1 3.3865035317495646 6.188169815083287 41.26631191326747 0 0 0
8057 54 1 3.468144769623314 10.62780600625309 41.240740397199204 0 0 0
542 55 1 11.025443208028078 5.247585411212035 30.459422868496954 0 0 0
8229 55 1 9.539687822454958 15.366343158017083 46.3567746093382 0 0 0
9040 14 1 2.2210608340099385 19.530230373448564 33.822409767424325 1 0 1
553 55 1 15.261787469787235 10.105764567274003 41.61247073340417 0 0 0
8453 35 1 6.014710734703026 18.57461165196613 47.260675079876634 0 0 0
8448 35 1 4.524700897490146 15.208828418961804 42.10227644860244 0 0 0
2492 18 1 15.200564242239729 24.14349831684824 31.74310008769283 0 -1 0
8447 35 1 3.3841956453936795 15.124585573388797 41.15919598282999 0 0 0
7976 33 1 4.75637162665323 5.519003611773765 34.674957459842815 0 0 0
8452 35 1 6.351872905868577 17.848137610079164 45.99735305470345 0 0 0
1210 8 1 13.204769357824715 10.161248739620024 34.5740151340877 0 0 0
8609 12 1 5.037835416372773 15.191934486466396 36.84616932050468 0 0 0
8617 12 1 8.763506222749253 20.11684552411542 44.85156731451724 0 0 0
1834 16 1 18.566293922865643 26.383651198843477 47.54061692051327 0 0 0
2261 17 1 2.9567702187418705 21.965949754892364 30.678026206802752 0 0 0
1733 13 1 3.0640483104639755 17.14473445915923 30.501387319739308 0 0 0
766 6 1 4.490454517590995 8.910671658980016 30.761995536300443 0 0 0
7466 61 1 9.757189959614353 7.564922623074231 47.3516046026227 0 0 0
13 2 1 14.191969162510027 4.700454602016609 46.32789510967572 0 0 0
7690 6 1 6.2613268568776155 8.932872033681768 46.094675836530875 0 0 0
2280 19 1 17.624621309220775 2.713454228832964 45.37708073661734 0 1 0
7682 6 1 2.6439954583800045 4.202821710679671 38.345071870309894 0 0 0
8053 54 1 1.6756089283095499 8.141691890283386 37.221360881823806 1 0 0
1207 7 1 11.558326189421582 8.297330898999828 31.564043442334082 0 0 1
8446 35 1 3.9501427253170127 14.338522447848991 39.96980912688795 0 0 0
9503 63 1 9.15738130937735 1.2827764785736304 44.10631123316362 0 1 0
9283 61 1 6.2763607787420135 26.537437837075355 46.510977914795305 0 0 0
5621 42 1 1.8265142093519908 9.243560650554548 44.426471928990885 0 0 0
9500 63 1 7.081333839876693 0.06107405743237755 40.897712802320655 0 1 0
9044 17 1 5.272868147436865 19.867279681963918 36.83327082373685 1 0 0
1831 16 1 16.381691708335516 24.812488403092683 44.63526143515017 0 0 0
6311 64 1 1.4531751522365013 19.379354884158417 45.71223740188752 1 0 0
2489 19 1 9.21884426801812 22.49255292730642 30.68338481814 0 0 0
7238 58 1 5.201884758204715 3.3508551089562317 44.148479093858086 0 0 0
7239 58 1 4.85709817731746 4.050566357303761 45.458990087775284 0 0 0
8618 12 1 9.879628507967926 20.49106764822812 45.84935167171885 0 0 0
7988 33 1 9.550479589614918 12.177671256462563 47.082702369426414 0 0 0
8607 12 1 4.303370627893213 14.093852066836025 34.665974354993494 0 0 0
7975 33 1 3.742656555678711 6.644289416513034 34.67181159791775 0 0 0
554 55 1 16.389919510645857 10.135087618605006 42.73087183423803 0 0 0
782 6 1 13.60284246287197 13.862946491773556 45.63531064449671 0 0 0
1833 16 1 17.379530502324542 26.01489741070312 46.71791158657378 0 0 0
7454 61 1 4.522570903871915 1.1472683335007774 34.839769903551975 0 0 0
7455 61 1 5.823006286284291 1.4953659246006954 35.45309359039879 0 0 0
7456 61 1 5.6945791135509 1.989702798101334 36.905353285487074 0 0 0
7457 61 1 6.899777869166258 2.3297423746891672 37.77413778038779 0 0 0
7458 61 1 6.392461632643574 3.031131535375497 38.97653887317637 0 0 0
7459 61 1 7.560799716924732 3.422105864832063 39.875816341947726 0 0 0
7460 61 1 7.260426661824532 4.253946352980817 41.12675277110969 0 0 0
7461 61 1 8.46053130251765 4.4897946556978265 41.97301420886262 0 0 0
7462 61 1 8.082505769774775 5.2522773409684405 43.20653807478683 0 0 0
7463 61 1 9.251689882754906 5.770827304300339 43.965243020496246 0 0 0
7464 61 1 8.957271726510331 6.453134186224757 45.378699136048745 0 0 0
9491 63 1 1.3155641943474687 25.12042937739352 33.652751655133194 1 0 0
7986 33 1 8.900225317478377 10.896490774639904 45.070954774224234 0 0 0
2055 17 1 13.720535001959009 1.1456433174381457 47.05418311042222 0 1 0
382 53 1 10.689891255668513 0.7771625420934302 30.959086483863867 0 0 0
997 8 1 17.446194692688 17.197926890196197 45.715182467703556 0 0 0
778 6 1 11.872801173908876 11.484852897562385 41.52718611633458 0 0 0
8059 54 1 4.258547395049766 12.037735146733466 43.27667429741201 0 0 0
8825 58 1 1.643888016306168 17.302285228262694 36.840536674733436 1 0 0
6004 44 1 2.574811645289346 15.199306487774086 46.640357601875664 0 0 0
8613 12 1 7.078490153889726 17.765205692739624 40.89227653515921 0 0 0
9046 17 1 6.06961959563146 21.065617853650288 38.83741863389699 0 0 0
9493 63 1 3.4916601946424617 24.463861586643876 34.569494740286295 1 0 0
7689 6 1 5.0890464572963365 8.66482221968614 45.146058726968164 0 0 0
7687 6 1 4.229673693606291 7.305069946128405 43.185564995982716 0 0 0
7688 6 1 5.390677198352641 7.532048604477354 44.158171242855694 0 0 0
9047 17 1 7.090640731824089 21.10325159737453 40.02595469759921 0 0 0
8606 12 1 3.3572236204233437 15.250275975783241 34.25014003969234 0 0 0
315 53 1 16.03410061210389 5.5199331115602845 43.025635927837065 0 0 0
9504 63 1 8.834419422337955 2.1085757935006426 45.379505626777984 0 1 0
1654 11 1 9.462990199931898 13.827174313243596 30.3190954615431 0 0 1
9053 17 1 9.96536028094107 24.763962396963723 45.9607184814723 0 0 0
304 53 1 11.292965433502523 26.215506995829006 31.65552291746726 0 -1 0
4760 10 1 15.002195041972076 20.507848746771476 31.693552296605574 0 0 1
3035 37 1 14.86292028181466 1.4525821782764115 30.460737950384004 0 0 0
7977 33 1 5.9453666997834915 5.7833026639298195 35.548808306116364 0 0 0
7978 33 1 5.4908541446428885 6.007056879272064 36.972041576694096 0 0 0
7979 33 1 6.606049605068641 6.783469978294263 37.654286257217926 0 0 0
7980 33 1 6.138422812172983 7.33700677773868 38.967808384522435 0 0 0