LAMMPS data file via write_data, version 23 Jun 2022, timestep = 11111117

9706 atoms
2 atom types
9690 bonds
3 bond types
9674 angles
3 angle types
9658 dihedrals
3 dihedral types

0 36.89775039 xlo xhi
0 26.67072 ylo yhi
15.952633198909624 220.79897120100708 zlo zhi
0 6.444911823916407 0 xy xz yz

Masses

1 14
2 15

Pair Coeffs # lj/cut/omp

1 0.0914 3.95
2 0.1947 3.75

Bond Coeffs # harmonic/omp

1 449.5 1.53
2 449.5 1.53
3 449.5 1.53

Angle Coeffs # harmonic/omp

1 62.0967 114
2 62.0967 114
3 62.0967 114

Dihedral Coeffs # opls/omp

1 1.411 -0.271 3.145 0
2 1.411 -0.271 3.145 0
3 1.411 -0.271 3.145 0

Atoms # molecular

1 1 1 7.596377203528357 0.2629515971402862 23.508412638335965 0 0 0
2 1 1 8.80192418447555 0.916174712799375 24.15781270849837 0 0 0
3 1 1 9.274683794822813 0.21846786614796074 25.44051666014785 0 0 0
4 1 1 10.550476859529375 0.8997817465635044 25.9169414287856 0 0 0
5 1 1 10.784316288419834 0.48508800677423936 27.33102590721656 0 0 0
6 1 1 12.0392816547384 1.137204354449168 27.88754123825052 0 0 0
7 1 1 12.30895350122979 0.6471689846517152 29.30420015497549 0 0 0
8 1 1 13.584901043626884 1.1299447826517293 29.90910942027697 0 0 0
9 1 1 13.94697529592046 0.3946159976629228 31.187104359221266 0 0 0
10 1 1 15.02604357805569 1.0388332659703985 32.01352666170686 0 0 0
11 1 1 15.17459946468869 0.3998839139207717 33.39015093298552 0 0 0
1047 7 1 4.206857580730933 9.918039844103339 18.016196356146583 0 0 1
7807 34 1 4.307305309493912 5.558688177855904 30.222183400648838 0 0 0
381 3 1 7.5988317284027325 2.838805616030593 17.217661125236976 0 0 0
1048 15 1 5.0122475051769015 9.08744229516883 19.015757487930806 0 0 0
8946 14 1 2.3496347567362066 18.1726583504581 27.278323017651623 1 0 0
380 3 1 6.35797449761843 3.5398192244277995 16.507485984305546 0 0 0
74 1 1 2.869388722005346 0.5763812063778269 17.6194336622241 0 0 0
75 1 1 3.649002653046099 1.4842430146371146 18.641642543443442 0 0 0
76 1 1 4.422494909245022 0.45164822933672105 19.50649485763381 0 0 0
77 1 1 5.546425375109491 1.1169184713895792 20.275398703716174 0 0 0
78 1 1 6.1206159910850575 0.28514628162806016 21.394232640113774 0 0 0
79 1 1 7.052777139681477 1.0718477592362847 22.302463653164367 0 0 0
159 3 1 9.032094922770673 2.7222785482547813 19.348023022948556 0 0 0
160 3 1 9.733030501717154 3.5659300181858304 20.42507071775579 0 0 0
161 3 1 10.75490057584437 2.7806165992321907 21.285559094357673 0 0 0
162 3 1 11.467969082528493 3.7035605774200318 22.340369890521828 0 0 0
163 3 1 12.227956906083062 2.7941784445018323 23.279667824065854 0 0 0
164 3 1 13.285395998267342 3.647107642120936 24.009584759096192 0 0 0
165 3 1 13.968074098948817 2.6927433624315475 24.98677735872183 0 0 0
166 3 1 15.048014055553516 3.4985852319983306 25.781430259828326 0 0 0
167 3 1 15.399938787499469 2.6001345597104284 26.993134935546188 0 0 0
168 3 1 16.314671883892608 3.345803310727697 27.924683100672073 0 0 0
2814 4 1 18.183921663864616 5.187492917235063 24.656837548401832 0 0 0
6233 41 1 3.636917284551391 15.887543957612689 36.01916569671331 1 0 0
2340 40 1 7.381365666279571 24.9949708379093 17.184749107426658 0 0 1
1497 9 1 3.993059489575102 14.356893447643943 18.113813035372317 0 0 0
8869 61 1 8.84541989335804 16.699040150162347 30.102675973308795 0 0 0
1045 7 1 2.514090605044614 10.010795938415193 16.01667844270374 0 0 1
2038 14 1 18.012491893101302 21.002035989440525 29.81014397401925 0 0 0
382 3 1 7.850945643356925 3.457590356082558 18.615266901460945 0 0 0
383 55 1 8.6701515952651 5.483640335319645 24.143709640932595 0 0 0
384 55 1 9.24128341668135 4.660474483747334 25.285669140898584 0 0 0
385 55 1 10.251152289630296 5.458732670925014 26.13963070356865 0 0 0
386 55 1 11.051485700233863 4.661126569123774 27.108819378196813 0 0 0
387 55 1 11.93762290828104 5.620454404588532 27.86178169177557 0 0 0
388 55 1 12.669917988395154 4.860514251959083 28.942957525883998 0 0 0
389 55 1 13.473978944796679 5.508333917692341 30.014646096040003 0 0 0
390 55 1 14.216143354785528 4.538335103141775 30.912010548114623 0 0 0
391 55 1 14.846117495475267 5.181018255050713 32.12591779984538 0 0 0
392 55 1 15.746172459825443 4.368050700099493 33.14556278657939 0 0 0
393 55 1 16.446337015968066 5.230901723412097 34.149254043561825 0 0 0
827 51 1 7.606217946945318 7.201009503655756 16.92765590879048 0 0 0
5475 22 1 1.853885139926992 7.530458127452709 32.31869687116509 1 0 0
4414 30 1 18.53150033763551 22.590383500710306 24.57258370052968 0 0 0
7359 16 1 4.25621815600182 1.1720425961114436 30.78458373377567 0 0 0
5848 38 1 2.3917980392726284 11.270735781517226 33.44499697525532 1 0 0
4629 31 1 16.151514954949974 25.201929802494178 16.77547549449918 0 0 0
7592 51 1 11.960816616299278 3.171353808776916 34.04623031950602 0 0 0
8859 61 1 1.2345712434595475 16.391020931713708 20.119950270176275 0 0 0
7137 48 1 1.1798772430914957 25.394597167743683 33.08242773228439 0 0 0
604 55 1 5.877722359881393 4.861710964935285 21.281108379045477 0 0 0
605 55 1 7.035052214741894 5.5902056220001475 22.010627962447852 0 0 0
606 55 1 7.66767428959495 4.797227192577766 23.13541467972954 0 0 0
607 51 1 10.660182552650335 7.158650013967754 20.991285570913426 0 0 0
608 51 1 11.699220915020682 7.83851153928083 21.809330685679406 0 0 0
609 51 1 12.245744445640808 7.190409066630077 23.05456855483323 0 0 0
610 51 1 13.496831483055194 7.821635177122839 23.617265741304372 0 0 0
611 51 1 13.968264008126102 7.214296620257921 24.920934295549323 0 0 0
612 51 1 14.925300669003713 7.971435831135835 25.79278361225925 0 0 0
613 51 1 15.442719117488886 6.961216164770937 26.837162092654108 0 0 0
614 51 1 16.16721324095104 7.655910160727475 27.92888552330506 0 0 0
615 51 1 16.88576227543917 6.781672160842783 28.924257325048654 0 0 0
3722 27 1 12.207914979989033 13.766456277182645 16.779747639318604 0 0 1
3122 45 1 16.358701585311838 7.443429774805386 16.55236744977084 0 0 1
7804 34 1 1.8175201975133681 5.119719902324399 27.39392172372877 0 0 0
5027 34 1 3.171331710782261 3.256915708859603 34.63417284684991 1 0 0
9645 3 1 12.026319221742458 25.275918481333253 34.49070510913644 0 0 0
3283 23 1 17.699848530190152 12.71915770320348 17.38472516507791 0 0 0
3723 27 1 12.80987924018922 14.58075106730902 17.917174204776146 0 0 1
2348 16 1 17.885683502464282 25.229445771703492 30.125465967985495 0 0 0
830 51 1 9.845596408457412 8.00411476329355 20.11547812317169 0 0 0
831 15 1 10.595958887494966 9.70285835487841 25.89880451870385 0 0 0
832 15 1 11.232602228492375 8.93089092111546 26.985157094570248 0 0 0
833 15 1 12.191937947080751 9.769084016839711 27.82222806455821 0 0 0
834 15 1 12.923502972353797 9.102524393409626 28.969987991752873 0 0 0
835 15 1 13.888655611506824 10.025978054072747 29.734723477321882 0 0 0
836 15 1 14.511954858087506 9.132003626259152 30.864326264455528 0 0 0
837 15 1 15.075212021449405 9.974349079255825 31.981054904189023 0 0 0
838 15 1 15.837452226027764 8.971100577291436 32.92328340850456 0 0 0
839 15 1 16.696833070098148 9.712746941237654 33.94791504841946 0 0 0
3952 26 1 18.276834493525648 16.382650343057215 18.18735380089529 0 0 0
9258 64 1 12.615975430207907 20.095109273186363 35.83129775364749 0 0 0
8108 55 1 12.29610646077013 7.075905767412527 35.204488899800005 0 0 0
4411 30 1 15.999667384901974 23.663011189974114 21.59344516279057 0 0 0
8949 14 1 4.255399078753661 18.74730374116995 30.617191192585235 0 0 0
1722 10 1 9.329274350504296 16.286321655176263 18.84668212502567 0 0 0
9346 10 1 0.6948527369329625 22.57183044785032 25.412794180558663 0 0 0
841 15 1 18.19999617423175 9.718441750946873 35.96070004050355 0 0 0
1049 15 1 5.956539434991787 9.911681034758928 19.93640407106089 0 0 0
1050 15 1 6.284565755369277 9.26522993393099 21.313625543830714 0 0 0
1051 15 1 7.444006628446205 9.903895928661662 22.115758606721982 0 0 0
1052 15 1 7.873687367240484 9.20071266427735 23.41803211976164 0 0 0
1053 15 1 9.206709683673692 9.697673234184276 23.931631362089245 0 0 0
1054 15 1 9.60267067211447 8.896196573567765 25.146700525178147 0 0 0
1055 8 1 12.50419176899111 11.332681262157243 23.007307192027646 0 0 0
1056 8 1 13.533794149823478 12.190688475844189 23.744648596562072 0 0 0
1057 8 1 14.187103485027981 11.296165922729756 24.797080289115378 0 0 0
1058 8 1 15.310960789809725 12.051747741231601 25.481480007694465 0 0 0
1059 8 1 15.896912946352746 11.295252037500257 26.702922431637717 0 0 0
1060 8 1 16.84446149676836 12.186242150250507 27.552687400238824 0 0 0
1061 8 1 17.081082199481873 11.572204327304004 28.907680166327772 0 0 0
8858 61 1 0.1853692719255099 15.767933605157406 19.23188302472536 0 0 0
3284 23 1 18.22450790512767 11.856147467085615 18.55327252355005 0 0 0
8180 56 1 1.4939637553843725 10.039489192447633 25.997498894835868 0 0 0
6232 41 1 2.9184333667528803 16.648851186241703 34.89315552663109 1 0 0
8571 41 1 2.982245542914163 14.518753656396639 28.020471401005445 0 0 0
8190 56 1 9.378741861076252 9.925412395227665 35.76049280054204 0 0 0
9642 3 1 9.808239842462815 24.49222019925347 31.573997152891216 0 0 0
1275 8 1 9.175378686236671 11.82112254470117 19.243693023444624 0 0 0
1276 8 1 10.409951352684383 12.403301199967279 19.85423326940935 0 0 0
1277 8 1 10.76490876351481 11.621516428495987 21.102940050426813 0 0 0
1278 8 1 12.083890461843167 12.06988712993218 21.772699399363486 0 0 0
1279 9 1 8.963842540773864 14.534797616195338 23.827093811992174 0 0 0
1280 9 1 9.68348457521263 13.674065708682829 24.78820881482323 0 0 0
1281 9 1 10.55496000434883 14.488386934708155 25.739743969329858 0 0 0
1282 9 1 11.25495248837127 13.640585369217783 26.822153305355798 0 0 0
1283 9 1 12.100900142003004 14.503720802043624 27.797791456134398 0 0 0
1284 9 1 12.908274151774243 13.774454294840627 28.773055484625615 0 0 0
1285 9 1 13.45272693400831 14.607081054583778 29.947469542207664 0 0 0
1286 9 1 14.56998096208999 13.820093321751417 30.745634997340737 0 0 0
1287 9 1 15.097306923061083 14.524515606541565 31.957669455596104 0 0 0
1288 9 1 15.985024531636357 13.587539473806837 32.78726155550837 0 0 0
1289 9 1 16.666949946334437 14.4062871989125 33.83280554405702 0 0 0
8341 38 1 1.8968023189728656 11.46688178273782 20.832547687581748 0 0 0
7357 16 1 2.643030666071379 1.1449594623741517 28.761419477340915 0 0 0
8574 41 1 4.91115262894075 13.785477008902385 31.3493171655617 0 0 0
9252 64 1 8.237409973515248 20.47044201179581 29.456232687119773 0 0 0
3505 24 1 17.646400576798307 14.747505869643554 23.804229886453044 0 0 0
7590 51 1 10.546548589266102 3.1595527078915437 31.992706414765834 0 0 0
1062 8 1 18.33829500723249 12.060915949801467 29.65279277279626 0 0 0
1498 9 1 4.5885426942217755 13.600629671950095 19.27497177049519 0 0 0
1499 9 1 5.680912944007889 14.414827380868307 19.893726855864056 0 0 0
1500 9 1 6.279681370013638 13.665904561433361 21.125924792107874 0 0 0
1501 9 1 7.332100790659421 14.43482125025366 21.88285548399547 0 0 0
1502 9 1 7.97323647232569 13.71004797930529 23.08231728018039 0 0 0
1503 10 1 13.136286137584973 16.786888275499386 23.92649828998275 0 0 0
1504 10 1 14.091490720942195 15.976753166490395 24.822086438039697 0 0 0
1505 10 1 14.846938848599983 16.73673788403801 25.91012263603278 0 0 0
1506 10 1 15.756410837557778 15.889515856016974 26.798062582226123 0 0 0
1507 10 1 16.467634974536253 16.68006092644868 27.873606554406123 0 0 0
1508 10 1 17.420478653938282 15.779404090635145 28.706103773510385 0 0 0
6687 20 1 1.541874340139531 20.9953686871949 33.151329362594474 1 0 0
2029 13 1 6.827661866124304 21.413670386016676 16.124238556961373 0 0 1
3729 26 1 18.49420108699595 16.85322478361198 19.63337069982653 0 0 0
5478 22 1 3.8998902986460235 6.9517416543591075 35.73888579968398 0 0 0
6229 41 1 0.9455130411864523 15.596862622453672 31.6539753380195 1 0 0
9639 3 1 7.378136991913775 25.516735163750987 28.733591642894947 0 0 0
9638 3 1 6.509602907894667 24.714395731028233 27.748909974167802 0 0 0
9356 10 1 8.482342858737157 22.04935902859265 35.42786966706128 0 0 0
1723 10 1 10.032618116865086 17.032833023718677 19.982408370904775 0 0 0
1724 10 1 10.96533210729386 16.187748137625448 20.81453237326255 0 0 0
1725 10 1 11.7823051225846 16.946891722879393 21.833979290196346 0 0 0
1726 10 1 12.518698097583972 16.031952074419944 22.789652668660445 0 0 0
1727 8 1 7.940700393237202 18.134192080066594 22.74269575855787 0 0 0
1728 8 1 8.405921204076582 18.97993461650487 23.911675562672404 0 0 0
1729 8 1 9.635938554278283 18.3508727444189 24.57480099860873 0 0 0
1730 8 1 10.098207675332846 19.026736549536487 25.819332325260774 0 0 0
1731 8 1 10.949682666787426 18.08773897103619 26.68714612979115 0 0 0
1732 8 1 11.550869214139496 18.71264697274393 27.93493445207422 0 0 0
1733 8 1 12.619338618520176 17.99893173077065 28.80211920571493 0 0 0
1734 8 1 13.491094366558443 18.875098168099427 29.679128494847166 0 0 0
1735 8 1 14.330822609454382 17.995986044503198 30.58357290776307 0 0 0
1736 8 1 14.815799088725468 18.662158475233653 31.849000232484006 0 0 0
1737 8 1 15.853903677702176 18.0569530482938 32.66377106513957 0 0 0
1738 8 1 16.35884669375061 18.82097163401646 33.88414323089236 0 0 0
12 1 1 16.460497085246335 0.9575964803486221 33.98491011526518 0 0 0
1496 9 1 3.077580604001421 13.522649848868681 17.166547219480904 0 0 0
9641 3 1 8.829197456253073 25.452088170687272 30.869392897800424 0 0 0
9637 3 1 5.6603185056549306 25.5304364888252 26.813087282594452 0 0 0
4409 30 1 14.232186457386325 23.416177915365193 19.756308746871888 0 0 0
8861 61 1 2.7753276957757853 16.544649182545204 21.94923484756415 0 0 0
9347 10 1 1.0574923731053192 23.39847767602307 26.634615552351725 0 0 0
1947 8 1 4.654256233864533 18.356058571110534 18.770269621384017 0 0 0
1948 8 1 5.383521665995997 19.13998550349018 19.890847599075222 0 0 0
1949 8 1 6.250170248264793 18.19576147156788 20.657216401547448 0 0 0
1950 8 1 6.825596954490081 18.803175076178235 21.93647001676382 0 0 0
2030 14 1 11.719210303229481 21.290121697359204 21.801100110278185 0 0 0
2031 14 1 12.52270441501682 20.433477638913143 22.77395627595955 0 0 0
2032 14 1 13.508994786048286 21.170207470744018 23.627998599131672 0 0 0
2033 14 1 14.07061427791752 20.345056120545717 24.740496596190162 0 0 0
2034 14 1 14.806590081547032 21.275099692012635 25.719142052543084 0 0 0
2035 14 1 15.328050123660034 20.443444970669407 26.893700464657726 0 0 0
2036 14 1 16.38286433478451 21.16876426321029 27.792113489253115 0 0 0
2037 14 1 17.27061168832028 20.264759228238606 28.715887707765752 0 0 0
2805 18 1 17.0707647069213 3.740481421065983 17.443302937642144 0 0 1
2503 11 1 11.6609898751548 0.348433101388795 17.164300320217276 0 0 0
6231 41 1 2.2543561607267018 15.771037577998811 33.82580135016363 1 0 0
2122 15 1 17.403508763912257 22.55633739883013 34.92005609473376 0 0 0
8575 41 1 6.383324117866437 13.545668083430337 31.85972873794074 0 0 0
1739 8 1 17.43561063467707 17.995047280084197 34.701686574224155 0 0 0
2105 14 1 8.2234043269285 21.280977450136195 18.13124087672232 0 0 0
2106 14 1 8.921429684860946 20.387911115959348 19.118321210935907 0 0 0
2107 14 1 9.750841721058457 21.12119910886817 20.15087325289757 0 0 0
2108 14 1 10.938237565861167 20.405058268856767 20.816846978126172 0 0 0
2109 15 1 6.618363949889359 23.454449477903278 22.368334591604953 0 0 0
2110 15 1 7.646262654133113 22.654580488073478 23.11451735143968 0 0 0
2111 15 1 8.33756429092307 23.37174280147284 24.287635825448362 0 0 0
2112 15 1 9.499684020695458 22.62926416894354 24.890426127106082 0 0 0
2113 15 1 10.206892902233244 23.273018181494997 26.07473014211061 0 0 0
2114 15 1 11.247003655975849 22.469094302604034 26.84188720655858 0 0 0
2115 15 1 11.766772308886031 23.269217762809284 28.02237480733642 0 0 0
2116 15 1 12.677977219865978 22.465385134807924 28.946635500315196 0 0 0
2117 15 1 12.990835418317584 23.244961528557102 30.197736533941935 0 0 0
2118 15 1 14.094292343178218 22.466704401647572 30.98335717685496 0 0 0
2119 15 1 14.762725290180272 23.338509237350298 32.07804177262027 0 0 0
2120 15 1 15.655325253574327 22.4680789980141 33.02737118386225 0 0 0
601 55 1 3.8903014840036017 5.581949410386934 18.014212347797073 0 0 0
3725 27 1 14.282382362055989 14.591883735481094 19.932625688901236 0 0 1
8107 55 1 12.004055843508484 7.564529545695131 33.750124797186544 0 0 0
8872 61 1 11.402540129529843 15.884760092494432 32.75196705389902 0 0 0
6230 41 1 1.803816306309212 16.44915296103962 32.52414860426879 1 0 0
8871 61 1 10.491374001751218 16.757879530609447 31.973954132526632 0 0 0
8183 56 1 3.113884143718643 9.4693510955485 29.386204964107588 0 0 0
2184 15 1 3.5280382638831993 23.52974579212237 18.518385077505418 0 0 0
2185 15 1 4.494843310580117 22.71735796674758 19.288166231534376 0 0 0
2186 15 1 5.230502729604084 23.491238355343675 20.354250106773435 0 0 0
2187 15 1 6.351174499565049 22.737757853313123 21.050299179567627 0 0 0
2346 16 1 16.068369838974817 25.240991377617625 28.27242653018437 0 0 0
2347 16 1 17.320665016632006 24.53669219701858 28.890318123872532 0 0 0
8339 38 1 0.3275984064617083 11.388404425166355 18.780485457281117 0 0 0
8093 55 1 1.1057624286605128 7.994895341989191 19.982886604592633 1 0 0
3951 25 1 17.022752200919008 16.965333688358335 17.54991467524355 0 0 1
1273 24 1 7.528918208913591 11.763560109786047 17.368310567862274 0 0 1
2341 40 1 7.818782947847038 25.596933456976025 18.559683419868247 0 0 1
8578 41 1 8.096232157221454 13.347334440641733 35.29723205841675 0 0 0
3127 20 1 18.48320098992787 9.330347230458106 24.689866658399062 0 0 0
7805 34 1 2.8678793187543223 5.805561920653046 28.210635994189914 0 0 0
1274 8 1 8.703118754552216 12.512746691127367 17.988887478488106 0 0 0
9162 63 1 1.8027637394579623 20.23990554497759 21.28739582188114 1 0 1
617 51 1 18.567005392852398 6.641593468646282 30.97734929217972 0 0 0
7136 48 1 0.8584468630829383 24.963972587790856 31.6583651686299 0 0 0
2421 16 1 12.978872276762322 25.64362621989868 24.095031611046856 0 0 0
2422 16 1 13.934420328653657 24.842821874536455 24.93294970376504 0 0 0
2423 16 1 14.370240314978627 25.460828904367403 26.23021844754998 0 0 0
2424 16 1 15.475179263264566 24.749169752348024 26.929139309870642 0 0 0
8945 14 1 1.402892936145546 18.951104157943405 26.35671062805788 1 0 0
2426 11 1 13.37896733911494 0.36560226375805405 19.20637553291629 0 0 0
2427 11 1 14.47740722300267 1.1925491367167977 19.848086212495502 0 0 0
2428 11 1 15.024590780143768 0.5053877040371496 21.128725944651553 0 0 0
2429 11 1 16.05866833876577 1.387846975567509 21.87474113742431 0 0 0
2430 11 1 16.602935820264683 0.8144984688843964 23.18285522653185 0 0 0
9349 10 1 2.6734152348000957 23.38358315841231 28.59832823678458 0 0 0
7811 34 1 7.322205086457326 5.372311194919035 34.31225478904098 0 0 0
8870 61 1 9.713492720218358 15.873874647536239 31.02813840818706 0 0 0
2104 14 1 7.588433931460565 20.504056340252315 17.04425269538722 0 0 0
1509 10 1 18.27543128501624 16.546901453715062 29.69562819920911 0 0 0
2432 11 1 18.220764584459197 0.7375387110206241 25.07270696574404 0 0 0
6689 20 1 3.241522743013406 21.047469884842027 34.995922693483095 0 0 0
7364 16 1 8.256639516393935 0.05257043181055001 35.55670725224478 0 0 0
7356 16 1 1.7781929963652208 0.4259658347630323 27.859897817722484 0 0 0
2808 4 1 13.202867129288453 5.0388344452599645 19.073173886355576 0 0 0
2809 4 1 14.421957839622541 5.7721884071104075 19.553791772889802 0 0 0
2810 4 1 14.733271694054903 5.349172775677655 21.010371721538576 0 0 0
2811 4 1 16.03243689473987 5.941682129938157 21.58255590408281 0 0 0
2812 4 1 16.452419148957063 5.2007107848873355 22.827712408660663 0 0 0
4412 30 1 16.857166452455093 22.76224081380664 22.506761404941727 0 0 0
5849 38 1 3.435496477517747 12.062304173746348 34.25865102094119 1 0 0
8952 14 1 7.036230598049359 18.02754475282448 33.04464818050616 0 0 0
3958 42 1 17.930734012968568 19.156546154510558 23.728666101086667 0 0 0
7578 51 1 0.7148384364901258 3.6030591763329074 20.22193573943283 0 0 0
1063 8 1 18.683642766187475 11.524304890698005 31.08305093269766 0 0 0
2339 40 1 6.325784861799774 25.876212341672037 16.471238156391983 0 0 1
9257 64 1 12.318145238388748 20.66367511225049 34.44461543672736 0 0 0
3123 20 1 15.034923918593245 9.494078716573608 21.08529763984268 0 0 0
3124 20 1 16.413675947900245 9.924212997212221 21.56456838113042 0 0 0
3125 20 1 16.73071536006821 9.471312330138407 22.971631997578687 0 0 0
3126 20 1 17.992846643529635 10.112519458636061 23.503031076037235 0 0 0
5028 34 1 3.988838390322441 2.385580671833337 35.60850839478147 0 0 0
2431 11 1 17.969252038871414 1.2988775625929696 23.66142675880589 0 0 0
2121 15 1 16.242037319892372 23.249193740588773 34.18543038040052 0 0 0
4631 31 1 17.812516865402074 25.182950038337303 18.772975123897783 0 0 0
9350 10 1 3.7633778021065143 22.68316952321404 29.40778032483602 0 0 0
3201 20 1 14.796994483910984 10.090611899221184 19.661531415888934 0 0 0
1721 52 1 8.488099648653286 17.007810261554532 17.77729797904641 0 0 1
4182 61 1 16.912534046122033 20.63519621652353 16.423919803685394 0 0 0
9636 3 1 4.725078803281289 24.758743838748142 25.79020952379114 0 0 0
7589 51 1 9.411687996189015 2.43876257774858 31.27479263359698 0 0 0
8356 38 1 13.967999731162946 12.238232496591616 35.58862239438241 0 0 0
8569 41 1 1.5045811848649597 14.145245644806241 25.906109687969877 0 0 0
8875 61 1 13.916105475062874 16.70878511942752 35.774277505685006 0 0 0
8950 14 1 5.431838444510073 18.10741914632535 31.21767816320147 0 0 0
9351 10 1 4.468957503762891 23.37521305487224 30.579869244714494 0 0 0
169 3 1 16.997566821377895 2.5287296482952586 29.010729314711483 0 0 0
8342 38 1 2.492181287088021 12.239868390952681 22.026427462324932 0 0 0
2806 19 1 17.743555466950905 2.9968610854465365 18.548103013115412 0 0 0
3727 24 1 16.022099773210854 14.643658445612502 21.754360666323628 0 0 0
3728 24 1 17.216952439438433 14.081368040322873 22.48357081869228 0 0 0
8576 41 1 6.5544601900293 13.611573374379141 33.36293945341788 0 0 0
9249 64 1 5.86594818319068 21.132374717292763 26.382369865399436 1 0 0
9256 64 1 11.085707743895489 20.164217810946386 33.56765427154454 0 0 0
4407 30 1 12.479662915436894 23.454471290070554 17.966288384462153 0 0 0
3953 42 1 13.93310071084704 18.215096318106838 18.70128679330138 0 0 0
3954 42 1 14.882626591947474 18.98868498962402 19.639317571522028 0 0 0
3955 42 1 15.131388305767775 18.27514106657526 21.004093837402866 0 0 0
3956 42 1 16.264177698980955 18.993102500130217 21.768056623374925 0 0 0
3957 42 1 16.957474672517954 18.310619956661146 22.926885193388824 0 0 0
9161 63 1 0.8053168056650379 21.03053932640217 20.432018217754162 1 0 1
1720 52 1 7.78242060207912 16.115936403013542 16.766641619169036 0 0 1
8182 56 1 3.097518754846442 10.003916631277312 27.975220956461712 0 0 0
3280 18 1 11.85512178293444 9.213721218915202 17.065632491920947 0 0 1
4176 42 1 13.124964815360883 19.125455290363785 17.837942754622787 0 0 0
8863 61 1 4.142373998554515 16.658448142428277 24.180759002225567 0 0 0
5026 34 1 2.2480671610766354 2.4177593277927496 33.72152042540117 1 0 0
3282 23 1 16.629497565903087 11.983080394042348 16.709819919427815 0 0 0
5851 38 1 5.012298435994277 11.845496257060322 36.27107742443925 1 0 0
1945 8 1 3.2061954641052557 18.245058649735014 16.67350266882159 0 0 0
828 51 1 8.341713713158871 8.00227312771135 18.031314795467424 0 0 0
600 55 1 2.652189867320833 4.871573017472265 17.292068677355324 0 0 0
1046 7 1 3.278141374623595 9.152430656658181 17.046104658342838 0 0 1
2804 18 1 16.21414550490264 2.917866798006178 16.497642166068655 0 0 1
5850 38 1 4.014935295365661 11.132156170414333 35.34380459480873 1 0 0
6686 20 1 0.9829435077970539 20.247144591305794 31.910991566905377 1 0 0
8948 14 1 3.9113053210814854 18.223979704380408 29.230852181925858 0 0 0
8188 56 1 7.856243123384803 9.755832445518996 33.792739537156976 0 0 0
8862 61 1 3.5598875850559395 15.74092473071943 23.060602273406115 0 0 0
3959 42 1 18.36750891188297 18.396605415890246 24.98983897997167 0 0 0
2183 15 1 2.669204070928458 22.901694674414312 17.420135244841212 0 0 0
8873 61 1 12.156537113971371 16.69320331999908 33.837591197500345 0 0 0
4184 61 1 18.418024668775896 20.590822099227967 18.473455064453397 0 0 0
9255 64 1 10.906784124478332 20.8022030694425 32.202944886964914 0 0 0
9254 64 1 9.669594690937721 20.263346332257026 31.538495334778773 0 0 0
8572 41 1 3.441041695804866 14.000747527313617 29.363570727076382 0 0 0
2349 16 1 18.804359800692872 24.532247229241094 31.1706557880821 0 0 0
8355 38 1 12.809662681029502 11.597126899075425 34.85755762497159 0 0 0
9355 10 1 7.699045464482742 22.966246841592053 34.48789094404316 0 0 0
7358 16 1 3.2571843178687163 0.3474748256227552 29.897191384611826 0 0 0
3043 48 1 17.28440061198126 8.337977283195436 17.329914122825016 0 0 0
3724 27 1 13.716125284655208 13.741708778753313 18.80290233461227 0 0 1
9163 63 1 2.522148873996362 21.16855017035404 22.290122123051788 1 0 1
2343 40 1 9.674633628227507 25.57014419908998 20.4646492528855 0 0 1
7593 51 1 12.280813706495861 2.495319861113028 35.404507699390436 0 0 0
7363 16 1 7.669680215487907 1.006947160433778 34.44214663607071 0 0 0
9640 3 1 7.918858427701404 24.6902555807688 29.915063974689765 0 0 0
3200 20 1 13.71710762367842 9.27593610913913 18.94935477146504 0 0 0
4630 31 1 17.274289607226827 25.884155498569193 17.567080862358438 0 0 0
8095 55 1 2.576303884743992 7.946831255838533 22.185677986285256 0 0 0
1291 9 1 17.990780664264417 14.069238958585991 35.87914306599255 0 0 0
8577 41 1 8.003757948664807 13.767370315426556 33.852345632521136 0 0 0
9634 3 1 3.2855987511531253 24.810543257981102 23.594512627866635 0 0 0
7813 34 1 8.882653644575555 5.3879789621248815 36.36853991994526 0 0 0
7812 34 1 8.273229190050762 4.556278738506054 35.286864300648574 0 0 0
9251 64 1 7.654789693099148 21.104400383035276 28.162304082000084 0 0 0
9646 3 1 12.915766782244708 24.59371433933175 35.50834760298619 0 0 0
5847 38 1 1.6584360399249216 12.014396434311447 32.345878916464926 1 0 0
9248 64 1 5.161787373225235 20.362245789612178 25.219005566037687 1 0 0
171 3 1 18.564151783583764 2.351098504846353 31.093183879434967 0 0 0
7806 34 1 3.23639582134471 4.890547385868937 29.377752565613008 0 0 0
9348 10 1 2.2036070656772484 22.666895492323196 27.373362544765506 0 0 0
8573 41 1 4.792745880801888 14.482471553260925 29.939318951632863 0 0 0
9635 3 1 3.986544279999344 25.588468694668148 24.733193296613017 0 0 0
9253 64 1 9.46052227318103 20.955100463809522 30.208518492857607 0 0 0
8860 61 1 1.628920624319194 15.684987165776276 21.42447122283713 0 0 0
170 3 1 17.937319872210058 3.2734258350361785 30.05115316582215 0 0 0
829 51 1 8.866981445146983 7.243335347237632 19.273308216230333 0 0 0
8181 56 1 1.8458710398896483 9.469379222537176 27.379308021503114 0 0 0
7360 16 1 4.7239956075157385 0.34971657931906264 31.957658112831318 0 0 0
7361 16 1 5.999253086199481 1.0334787164548684 32.590260843900325 0 0 0
7362 16 1 6.554906453493956 0.21622852542959536 33.7082209340219 0 0 0
4175 42 1 12.243365140577023 18.24426438559482 16.870371529169 0 0 0
8353 38 1 11.431584051114863 11.403030825866368 32.72698359527688 0 0 0
13 1 1 16.798130404452376 0.3271695614322656 35.31728392309094 0 0 0
1946 8 1 3.789614104006217 19.18997336757329 17.79591856916247 0 0 0
4410 30 1 15.290062143833206 22.74996470412034 20.607449880171092 0 0 0
4408 30 1 13.663437199709229 22.718037197623417 18.54435239977179 0 0 0
4183 61 1 17.281684246604712 21.31233493341473 17.726113619269178 0 0 0
9353 10 1 6.180478497573869 23.19917976612851 32.43880471633232 0 0 0
4406 30 1 12.097803935483952 22.779473232463864 16.663475218560734 0 0 0
7579 51 1 1.1876709409946442 2.7481388485578155 21.45518478272476 0 0 0
7580 51 1 2.383532518111609 3.372478501338764 22.153252684425482 0 0 0
7581 51 1 2.8310034195540967 2.6720117080904306 23.39849685399657 0 0 0
7582 51 1 4.079755107084409 3.034320580680488 24.116608521627548 0 0 0
7583 51 1 4.387697378289894 2.497281878441376 25.501168881593866 0 0 0
7584 51 1 5.693712908879461 3.078551366172472 26.117086075647954 0 0 0
7585 51 1 6.083090704211818 2.703528606323042 27.553215285373 0 0 0
7586 51 1 7.392809117005362 3.3278063594734535 27.988047911573048 0 0 0
7587 51 1 7.936194668400908 2.485907117421377 29.152533277744055 0 0 0
7588 51 1 9.075417724239868 3.101536079080328 29.943081362881543 0 0 0
9246 64 1 3.3743928937507905 20.42453937891721 23.381363433109094 1 0 0
2345 40 1 11.458797716642 25.731773426276185 22.109310670641023 0 0 1
7138 48 1 2.5363452480799196 24.844244951875723 33.504600959746426 0 0 0
8951 14 1 5.7360932228214025 18.66915180275194 32.55747170429376 0 0 0
73 1 1 2.2388258521605207 1.4166465528921148 16.470668087246345 0 0 0
8867 61 1 7.356428822502396 16.75038566774387 28.05948010989814 0 0 0
394 55 1 17.125325734172428 4.4138370039961305 35.22257342473986 0 0 0
9247 64 1 4.201835141948768 21.243521788235576 24.354726363665257 1 0 0
9633 3 1 2.549503930291065 25.674691339572618 22.583245736085903 0 0 0
9631 3 1 0.6564475821001095 25.826141949512213 21.013715329937725 1 0 0
7808 34 1 4.937799103505143 4.744314907573904 31.331797322046995 0 0 0
7809 34 1 5.884874136060214 5.464549396638512 32.23602161624773 0 0 0
7810 34 1 6.591337591709028 4.565210066138461 33.26790509105603 0 0 0
8189 56 1 8.306069300647177 9.107970820848434 35.08838295703865 0 0 0
4413 30 1 17.601971201133455 23.47460728690593 23.670055602974042 0 0 0
8874 61 1 13.047324569219105 15.918016783982967 34.8233184107241 0 0 0
9632 3 1 1.6853367744724317 24.91045848256007 21.677521660427796 0 0 0
603 55 1 5.155776656938399 5.6949897639193505 20.234576102074318 0 0 0
8866 61 1 6.539413889931412 15.913238288523909 27.067045330459003 0 0 0
8096 55 1 3.175844309686138 7.132128839666316 23.255512408917212 0 0 0
8097 55 1 3.993826341984009 7.913526540748346 24.19582239173215 0 0 0
8098 55 1 4.771254714371609 7.043426352934607 25.143809803010036 0 0 0
8099 55 1 5.6272564989385065 7.770471558331862 26.128957944643822 0 0 0
8100 55 1 6.17152005916887 6.883058378501783 27.207496561092974 0 0 0
8101 55 1 7.243149410077382 7.637032597249929 28.032984459925636 0 0 0