LAMMPS data file via write_data, version 23 Jun 2022, timestep = 11111117

9706 atoms
2 atom types
9690 bonds
3 bond types
9674 angles
3 angle types
9658 dihedrals
3 dihedral types

0 36.89775039 xlo xhi
0 26.67072 ylo yhi
11.4879227627099 225.26368163737854 zlo zhi
0 6.725850847392642 0 xy xz yz

Masses

1 14
2 15

Pair Coeffs # lj/cut/omp

1 0.0914 3.95
2 0.1947 3.75

Bond Coeffs # harmonic/omp

1 449.5 1.53
2 449.5 1.53
3 449.5 1.53

Angle Coeffs # harmonic/omp

1 62.0967 114
2 62.0967 114
3 62.0967 114

Dihedral Coeffs # opls/omp

1 1.411 -0.271 3.145 0
2 1.411 -0.271 3.145 0
3 1.411 -0.271 3.145 0

Atoms # molecular

1 2 1 8.635251555291058 0.1510814141646865 20.172140238520694 0 0 0
2 2 1 9.094585235755428 0.8790135217491073 21.443258755145273 0 0 0
3 2 1 10.161771547089444 0.2841796138990883 22.366210989286056 0 0 0
4 2 1 10.619449770303305 1.105125973102207 23.563633657994302 0 0 0
5 2 1 11.731069032831002 0.36008233075702956 24.327038351076244 0 0 0
6 2 1 12.007590074510944 0.9478812802285205 25.654953418937485 0 0 0
7 2 1 13.063118395764725 0.23014117699089606 26.518189483166903 0 0 0
8 2 1 13.511469094250705 0.7679209958829026 27.83192991117181 0 0 0
8512 60 1 3.013863604924227 13.937576672217572 27.173084098867903 0 0 0
2294 14 1 18.967256583821143 25.053558047987675 28.574336903416057 0 0 0
3198 19 1 18.458661173891883 9.358645562144451 22.97477365574146 0 0 0
8433 2 1 9.668485694708655 11.423682305999504 29.113985984280752 0 0 0
2598 1 1 16.131468447152177 2.8379671371151565 12.111356770613073 0 0 0
219 2 1 3.7308619717391305 0.4271856281397256 14.59304790669165 0 0 0
220 2 1 4.336988865502204 1.2388630996566774 15.762414961619559 0 0 0
221 2 1 5.475329614207176 0.4253718076256707 16.431751625528932 0 0 0
222 2 1 5.954762491096208 1.0901904384928456 17.758446006361822 0 0 0
223 2 1 7.043873792323921 0.19544649744824902 18.260251270226185 0 0 0
224 2 1 7.387723109062774 0.8201149141975688 19.614169197952485 0 0 0
304 6 1 13.784940968178896 3.4568381238184935 21.757499801794616 0 0 0
305 6 1 13.897511689338245 3.1319815210361375 23.260990988692527 0 0 0
306 6 1 15.178451305483481 3.564405261865425 23.89450959598662 0 0 0
307 6 1 15.326192834744875 3.0415594134200115 25.30114342914257 0 0 0
308 6 1 16.774658370631993 3.3270244762403376 25.684442180311287 0 0 0
309 6 1 17.13962971825647 2.6895044412749827 26.970802341548282 0 0 0
9185 60 1 0.1418427304260718 21.314939563685343 15.079609358671236 0 0 0
3802 24 1 17.87386331239974 16.420638433859317 14.741740140819555 0 0 0
2285 56 1 8.294976007779939 25.12267518235522 14.360229083490527 0 0 1
7299 48 1 1.1594742911571692 0.9739165372886529 23.77315023991628 0 0 0
7298 48 1 1.0281449011290333 0.7159135784869266 22.243958677761782 0 0 0
826 6 1 9.933033555830006 6.939604952853538 16.637352286242646 0 0 0
4562 29 1 11.717921840432064 23.2064582140675 13.386274291185323 0 0 1
7691 50 1 3.436201769912565 4.689395902985029 26.860728148406885 0 0 0
7306 48 1 6.992643142641372 0.471938959462851 30.56655727591479 0 0 0
380 6 1 11.331650762453373 3.099498897405715 18.810824187555312 0 0 0
381 6 1 12.633586486294732 3.3418004237495973 19.458335945653225 0 0 0
382 6 1 12.593182084668067 3.03082702029961 20.940315040257516 0 0 0
383 57 1 6.929956602678912 4.99293085804151 18.599105411138552 0 0 0
384 57 1 7.371745307462436 5.764646759142283 19.747604620498507 0 0 0
385 57 1 8.381923009946943 5.042441415768025 20.595389823727437 0 0 0
386 57 1 8.788128416693702 5.830490327145358 21.827198456062817 0 0 0
387 57 1 9.99286977311143 5.1734193277822955 22.58891088549851 0 0 0
388 57 1 10.099116634929784 5.672241587969577 24.03692821184897 0 0 0
389 57 1 11.112099379017423 4.835284747985998 24.832479823794436 0 0 0
390 57 1 11.183248004022436 5.017777202689775 26.33067477710297 0 0 0
391 57 1 12.353038141708513 4.433847639976759 27.085063497500414 0 0 0
392 57 1 12.66587439612671 5.0519905576266035 28.431934791077897 0 0 0
393 57 1 13.905200546129 4.461075859930459 29.115671212915984 0 0 0
379 6 1 11.177496729911244 3.2875987864900704 17.294171347644003 0 0 0
300 3 1 6.671175647672973 2.683085417037912 12.88260959097267 0 0 1
3196 19 1 17.291857909012894 9.359279629865513 20.863582688976962 0 0 0
1460 11 1 17.799777175547693 16.57671258356599 27.750660452292276 0 0 0
822 5 1 6.668054031642103 6.980533722919423 12.810380883432831 0 0 1
604 57 1 4.1539355217515475 5.248446648563803 15.905869538175393 0 0 0
605 57 1 5.296947197154776 4.703364523713887 16.770890889511 0 0 0
606 57 1 5.705290675367641 5.562788235793789 17.981238998797412 0 0 0
607 6 1 13.899028681815874 7.616814333148786 21.61421915439344 0 0 0
608 6 1 13.965985548419413 7.236730952864341 23.113424213027784 0 0 0
609 6 1 15.174294363834102 7.747746186915028 23.90957344450102 0 0 0
610 6 1 15.344576487862103 7.227673017940088 25.332420338129413 0 0 0
611 6 1 16.714335583455984 7.500031251289472 25.928679373610855 0 0 0
612 6 1 16.804026039246658 6.918116460041604 27.278853879152138 0 0 0
613 6 1 18.102216780953448 7.343484709938001 28.02489245845805 0 0 0
7082 47 1 2.162205585831246 25.38429320355617 30.55564949154693 0 0 0
1128 35 1 8.021000855042802 11.405702832785163 14.7183868036733 0 0 1
2204 14 1 3.7301429343537236 22.4156354870608 14.092447037316461 0 0 0
8135 39 1 7.495416768169276 10.110668837307651 32.07503053859598 0 0 0
835 8 1 2.658969258510073 9.662199162199718 13.55088555917024 0 0 0
3642 20 1 16.917492534498848 12.463386130056167 13.255678063670938 0 0 0
1376 54 1 2.4774443841200426 13.54219219922413 12.440160813473225 0 0 1
827 6 1 10.815985280648656 7.597041969129775 17.667417641990408 0 0 0
828 6 1 11.340115618836794 6.863993478504737 18.851247499813823 0 0 0
829 6 1 11.893319804092016 7.782213275190169 19.92637911200017 0 0 0
830 6 1 12.609651778214491 6.986783012516015 21.022845594477364 0 0 0
4024 24 1 16.25935774038141 16.28502030898864 12.760961668674668 0 0 0
3412 38 1 11.223293028721878 9.595714060775265 12.573182451905172 0 0 1
1127 35 1 7.652461353057077 12.211754654159282 13.487917070914394 0 0 1
1461 11 1 18.48012322845572 15.919612183092543 28.93362037236363 0 0 0
2283 56 1 6.919070399924164 24.872416261958424 12.252493958375045 0 0 1
836 8 1 3.847644897910902 9.040937512627162 14.221364254262472 0 0 0
837 8 1 4.0559479205476485 9.747992204016489 15.577836104703637 0 0 0
838 8 1 5.179288335566787 9.172816302449297 16.420951073986874 0 0 0
839 8 1 5.549147809081419 9.80248583361906 17.769518318703405 0 0 0
840 8 1 6.822594851924709 9.270376398317527 18.441310611146093 0 0 0
841 8 1 7.142921596552339 9.966633303108013 19.75524118369848 0 0 0
842 8 1 8.218664341871229 9.237182039259594 20.55571882511138 0 0 0
4409 28 1 17.748751588890197 23.215071157475684 21.676006320330288 0 0 0
7605 48 1 9.987662563611705 3.0722211808556765 30.21595149213978 0 0 0
4033 28 1 15.344877572720137 18.40175938883585 17.40373973876801 0 0 0
614 6 1 18.2512590446715 6.7156776996756244 29.3840863675883 0 0 0
848 8 1 12.272596284248918 8.842005729179549 26.844426436306236 0 0 0
3193 4 1 16.23606774997418 7.398240501467852 12.459869612666024 0 0 1
7307 48 1 7.15637296885752 0.6709336921461845 32.01510041526382 0 0 0
1134 9 1 16.850915480649345 11.902898776212151 25.594192515608704 0 0 0
2972 19 1 18.289924625761653 8.140645518511775 15.717415546190706 0 0 0
7592 48 1 1.0668530673439458 3.125911285614727 16.376307231317718 0 0 0
310 6 1 18.425786765769136 3.169530972279474 27.607746937983062 0 0 0
2971 19 1 17.709385896156828 7.340984315275475 14.567287362604453 0 0 0
3194 19 1 16.668707024967123 8.129090766648236 13.7326773923285 0 0 0
7302 48 1 3.95320619462307 0.3860720953650614 26.481058757935294 0 0 0
2361 14 1 9.797942558892807 25.249569559281863 16.350795771781637 0 0 0
3641 21 1 15.818687988160667 11.829122068715561 12.438933474651376 0 0 1
9188 60 1 1.9873965366986663 20.617076289334562 18.423091258259277 0 0 0
3648 22 1 18.804504718125276 13.62119648148239 23.035217728691595 0 0 0
3418 19 1 15.557263560722802 9.455502895804376 18.957070096024594 0 0 0
2371 16 1 14.812024566511102 0.4290876663989521 16.425967742296763 0 0 0
8516 60 1 6.181754718993034 13.91730298426213 31.24544123967176 0 0 0
1209 9 1 13.787639591023982 11.683290630409767 21.63448866507962 0 0 0
1210 9 1 13.805594856558248 11.826064140673228 23.11307268661104 0 0 0
1211 9 1 15.246279446685167 12.09695625907066 23.623590932489627 0 0 0
1212 9 1 15.46485836052513 11.644641035255333 25.038719454748584 0 0 0
1213 61 1 8.000119700169487 13.561982994491627 21.12659049478564 0 0 0
1214 61 1 9.290753543077301 14.015723455602345 21.81426010518173 0 0 0
1215 61 1 9.36831086718501 13.431248319859302 23.177732332707926 0 0 0
1216 61 1 10.51174737976739 14.102034677938725 23.97025635361997 0 0 0
1217 61 1 11.010150730387535 13.170565000670448 25.035247218959928 0 0 0
1218 61 1 11.831632796999216 13.859616481184627 26.110450126050072 0 0 0
1219 61 1 12.569900702584176 13.035059695599388 27.13833726797047 0 0 0
1220 61 1 13.473213358587481 13.94768077164675 27.977990615953406 0 0 0
1221 61 1 14.204523809025725 13.275538655171372 29.1643888220909 0 0 0
5413 34 1 2.6944231537367727 7.329755365424854 32.27108705199788 1 0 0
8897 44 1 4.782804989479257 18.657866488962696 27.626254135455635 0 0 0
2822 9 1 17.38195690463237 4.938749878270203 20.661328756867547 0 0 0
396 57 1 16.104007477298786 5.165193600567506 32.371742267756304 0 0 0
1286 61 1 3.7773706276680947 13.661686886973701 14.665390522006767 0 0 0
1287 61 1 4.882279622348695 14.3221495180519 15.53112954949817 0 0 0
1288 61 1 5.218334806191964 13.63794144983163 16.781410741649154 0 0 0
1289 61 1 6.433373605117874 14.156769953479456 17.52874033505396 0 0 0
1290 61 1 6.479548407350214 13.651667148030711 18.98103880718286 0 0 0
1291 61 1 7.780114017681676 13.96841148215103 19.657485186415826 0 0 0
1456 11 1 15.1678782581016 16.21936541444034 23.635030603130808 0 0 0
1457 11 1 15.599254576988905 15.411335676413625 24.85830070521861 0 0 0
1458 11 1 16.580250960796622 16.245458228462947 25.65184903431073 0 0 0
1459 11 1 16.912347031302637 15.621360947742506 26.9695101649518 0 0 0
4183 24 1 16.16138349220397 20.537192944759738 12.316232712591148 0 0 0
9498 51 1 1.2457630913404565 25.44195256169565 17.137765434451744 0 0 0
4032 28 1 14.182370460630725 17.841330422958116 16.53323847574611 0 0 0
5867 39 1 1.3349542262459249 11.404683237042258 31.409661862438753 0 0 0
12 2 1 16.545149843715144 0.8006494827969771 31.976474383252626 0 0 0
4038 28 1 18.56415004926739 18.045897656269243 22.74570447365091 0 0 0
8801 57 1 3.6292855769500436 15.750147759333196 20.644939896126154 1 0 0
1452 10 1 8.188029101599012 15.904612193842892 14.613040161973311 0 0 1
218 2 1 2.8901046191331554 1.1266573477040402 13.53433497705021 0 0 0
1455 10 1 10.876283778597815 16.42724275162831 17.40357016212218 0 0 1
302 3 1 8.312371727608042 2.8297763965259626 14.75326168319068 0 0 1
7902 31 1 4.2508978935492765 7.486314605976233 22.270635988047033 0 0 0
1533 11 1 13.549107968263435 16.249175555985357 21.56015490002433 0 0 0
1534 11 1 14.00222212077949 15.630976871566471 22.894277278839304 0 0 0
1535 12 1 7.940810769069243 18.51326028982381 19.632732597260905 0 0 0
1536 12 1 8.483961459941707 17.825048093905732 20.922648074307048 0 0 0
1537 12 1 9.369935311149588 18.623483591607098 21.870849856633328 0 0 0
1538 12 1 9.98097588514366 17.721047402415778 22.93686636438166 0 0 0
1539 12 1 10.805509642708728 18.554476337642384 23.950634140804077 0 0 0
1540 12 1 11.372896315681894 17.715894693503127 25.085368954834923 0 0 0
1541 12 1 12.369260862183165 18.462099891548036 25.993128464349493 0 0 0
1542 12 1 13.080240460830508 17.634521838602225 26.97275793483332 0 0 0
1543 12 1 13.563771061507826 18.6267813658995 28.05992100488799 0 0 0
1544 12 1 14.494849850447332 17.889321846977538 29.016888294403874 0 0 0
1545 12 1 14.926172071846187 18.650655582179656 30.23447616626131 0 0 0
8422 2 1 1.5116288410542158 12.435489053606979 17.921220433080244 0 0 0
8896 44 1 3.6696941606618863 17.972404957590314 26.91278762942573 0 0 0
2376 16 1 18.154008226979325 1.2593428046528206 22.038383177226795 0 0 0
1136 9 1 18.35115358612917 11.784730874745355 27.68469431826472 0 0 0
1755 12 1 5.2632712539090125 18.20426113054764 15.306875229834187 0 0 0
1756 12 1 5.4088302289029935 17.797792986252936 16.76732457184566 0 0 0
1757 12 1 6.6983156079687 18.246470462855925 17.496242553846354 0 0 0
1758 12 1 6.91933403712149 17.71489134984846 18.89427643034222 0 0 0
1759 45 1 9.338165881824954 20.901688755056796 15.47064123995899 0 0 0
1760 45 1 9.875955719306505 19.988242507439047 16.612539760954924 0 0 0
1761 45 1 10.436182780118344 20.822711298755113 17.762180185800823 0 0 0
1762 45 1 11.228565371153582 19.965281969509558 18.70957680622077 0 0 0
1763 45 1 11.952403862440564 20.868987729678082 19.673956430511875 0 0 0
1764 45 1 13.05510737491378 20.18658483782918 20.418317448410594 0 0 0
1765 45 1 13.71468280413031 21.120602663014513 21.410797390453407 0 0 0
1766 45 1 14.183284315676383 20.19493137304498 22.563802178728807 0 0 0
1767 45 1 15.208807391219004 20.93994161719661 23.513850249192693 0 0 0
1768 45 1 15.59168196774365 20.263852500930863 24.789539913433792 0 0 0
8725 56 1 0.7441404461792798 15.960961127877603 16.455608784652558 1 0 1
8804 57 1 5.744650686500968 16.704692484543017 23.80085131870419 0 0 0
6252 52 1 1.4232056974411156 16.571761107021178 30.03629492740032 0 0 0
2367 16 1 11.694496966785294 0.4143910525806913 12.408146164322291 0 0 0
4184 24 1 17.59100883609764 20.53261435663061 12.83117341040658 0 0 0
7301 48 1 2.5829463855362977 0.8060249069775097 25.863091604415082 0 0 0
3413 38 1 12.332327152409803 10.273942983035601 13.355361023444024 0 0 1
1982 45 1 8.410767202280832 20.148298310087938 14.421247530127378 0 0 0
1983 14 1 6.0652987747890785 22.900970947913436 17.192228805636063 0 0 0
1984 14 1 6.896810121088669 22.059813391610607 18.2142905654211 0 0 0
1985 14 1 7.648042090198001 22.94158572891388 19.28413873597234 0 0 0
1986 14 1 8.176085639078293 22.223735258486997 20.51885264750169 0 0 0
1987 14 1 9.163564552070998 23.073086807982662 21.29073080916519 0 0 0
1988 14 1 9.881764824053029 22.27899648324481 22.36391385063292 0 0 0
1989 14 1 10.479554084089681 23.190704001594604 23.37957614844199 0 0 0
1990 14 1 11.230146325769821 22.37886555896748 24.48041278663501 0 0 0
1991 14 1 11.767772055708104 23.18754259330864 25.603704147362457 0 0 0
1992 14 1 12.524760144423796 22.314797288610997 26.677515579566872 0 0 0
1993 14 1 13.376461189886768 23.063934614020624 27.633556586336624 0 0 0
1994 14 1 14.256069305413618 22.262117754731175 28.589673165029954 0 0 0
9290 61 1 7.415820847178543 23.500821081811946 31.715586527192134 0 0 0
846 8 1 10.938343393662853 9.079248029960462 24.74179668687325 0 0 0
2601 1 1 18.3609508539372 3.390192112768561 15.229556021811558 0 0 0
4564 29 1 13.152151510873669 23.01715318810015 15.58207480257219 0 0 1
11 2 1 15.6586632726912 26.65907211667611 30.95113387165805 0 -1 0
2205 14 1 4.700613679579125 23.153244431244378 15.020329855805677 0 0 0
2206 14 1 5.352273597748374 22.21131343815571 16.08324196781875 0 0 0
2286 14 1 13.011909916964603 24.842522257744083 20.225644753713333 0 0 0
2287 14 1 13.788226592441426 25.564579697573286 21.30474755295601 0 0 0
2288 14 1 14.145737844393137 24.786628188827027 22.624312529402363 0 0 0
2289 14 1 15.09286492487523 25.558174151484863 23.5419394178599 0 0 0
2290 14 1 15.645306726828164 24.727430903377673 24.68822032388605 0 0 0
2291 14 1 16.699096923884305 25.53405364293028 25.50226602898388 0 0 0
2292 14 1 17.41312224561096 24.865024662271818 26.674193614899675 0 0 0
1135 9 1 17.030044919587564 11.342193460543989 26.99275356609863 0 0 0
3197 19 1 18.220610903102305 10.173751602842447 21.738907516346288 0 0 0
3646 22 1 17.216066511208187 13.603565553248345 20.945829547602486 0 0 0
602 57 1 2.609994857612715 5.066676426714171 14.04921479714576 0 0 0
7909 31 1 9.48334866217441 6.799677781063927 29.403142100412133 0 0 0
8514 60 1 4.552982117735743 13.847328641245577 29.250614370442246 0 0 0
3800 23 1 12.477594432911578 14.275720650840608 13.313586259101584 0 0 1
7607 48 1 11.386917428429449 2.8751958101354584 32.30792328982975 0 0 0
2362 14 1 10.994152562815845 25.915168981346728 17.0523894147521 0 0 0
2363 14 1 11.486504878332555 24.92436050024485 18.182332243441277 0 0 0
2364 14 1 12.314764445035516 25.718333985107726 19.207590548037203 0 0 0
8799 57 1 2.2149811299916835 15.890132637762807 18.509154300532764 1 0 0
2202 14 1 2.3119359555872947 22.493668548947316 11.988411845212765 0 0 0
8423 2 1 1.8498376140236434 11.713423767132596 19.22033186919271 0 0 0
9288 61 1 5.702406591725114 23.434566381776385 29.78705465747236 0 0 0
8901 44 1 7.8077370445369025 18.725939142873987 31.775312127786762 0 0 0
3719 22 1 12.605629148408875 13.79872285537859 14.774486608638998 0 0 0
4484 28 1 14.783386926384825 23.154087851139856 17.52001367918902 0 0 0
834 8 1 2.4257355702281327 9.288871263018697 12.126258014805494 0 0 0
394 57 1 14.37702395862732 5.162986423772838 30.431417598767364 0 0 0
1130 35 1 9.32953288635196 11.067418091165301 16.87914875918466 0 0 1
2373 16 1 16.25855866771026 0.6196337158517035 18.565660508955048 0 0 0
9282 61 1 1.2985809241260804 23.39810395688793 23.59270473888509 0 0 0
2374 16 1 16.658582401318856 1.3667120241846047 19.8396951641396 0 0 0
3415 38 1 13.796291092078945 9.88374331534466 15.57414933285818 0 0 1
600 57 1 1.284422759816919 5.643117728091258 11.833878520080548 0 0 0
5412 34 1 1.6376007665436485 6.727133966308215 31.34578743831908 1 0 0
2815 9 1 12.373407998580285 6.011819267336906 13.145629102427671 0 0 0
2816 9 1 12.813776336453088 5.292596146603185 14.39142874783884 0 0 0
4563 29 1 12.97659580341919 22.702858044123335 14.083789253232018 0 0 1
1997 14 1 16.485526200176004 22.87832613692286 31.85060955235217 0 0 0
1769 45 1 16.641485248236883 21.040816901514045 25.606572375319843 0 0 0
2375 16 1 17.858722726897838 0.6558513889314757 20.627773100451428 0 0 0
8800 57 1 3.209415384601008 16.551588239693704 19.43188889752986 1 0 0
3192 4 1 15.216126403757489 8.14577985640097 11.533789206534934 0 0 1
9285 61 1 3.8946313380108832 22.560207587433364 26.433196790801116 0 0 0
1208 9 1 12.360427329178986 11.526892268258559 21.014268442730277 0 0 0
2824 9 1 18.770626894905647 5.053248787662752 22.857548250227122 0 0 0
9513 51 1 12.685528621124389 24.546461152189803 32.25350303450201 0 0 0
3195 19 1 16.816593653369914 10.063188545242621 19.5669510581306 0 0 0
4570 22 1 17.967802970038008 25.35822135619137 15.430271322752994 0 0 0
6254 52 1 3.1325118234982363 16.680190478465097 31.881660414451783 0 0 0
4567 22 1 16.368380062442398 24.74022507736165 11.875509371648683 0 0 0
2370 16 1 13.81503414329175 1.2236283571601785 15.634518354593697 0 0 0
7911 31 1 10.822037928071504 6.65943641426805 31.559402681069514 0 0 0
9511 51 1 11.324010610199656 24.642479682926552 30.143183171547054 0 0 0
301 3 1 8.139186310710738 2.8461750645521775 13.231899792161672 0 0 1
8132 39 1 4.661817910716259 9.385109088845478 29.410275941559984 0 0 0
3721 22 1 14.303937659165697 13.871857741390658 16.71413965592411 0 0 0
7689 50 1 1.9059559078563462 4.7354734710922 24.879448397797937 0 0 0
1754 12 1 3.794945672746317 18.12959566645539 14.81517775372946 0 0 0
4568 22 1 16.910474000751613 25.43221173536224 13.129872782175315 0 0 0
8421 2 1 0.4565511738578859 11.753221759217567 16.99006879049804 0 0 0
3643 22 1 15.693489298159445 14.152248381067613 17.234688899443825 0 0 0
3644 22 1 15.880333243478633 13.690276979956343 18.687327386360746 0 0 0
3645 22 1 17.193407539357054 14.058024118221832 19.525852249476507 0 0 0
823 5 1 7.688867913782868 7.810695061599301 13.553372442853256 0 0 1
2284 56 1 7.557296768027834 25.82209902219216 13.242093413522534 0 0 1
850 8 1 13.71803270327516 8.909798221038804 28.959754856784187 0 0 0
395 57 1 15.692904413507291 4.579328414606802 30.99107037471548 0 0 0
849 8 1 12.702914796040085 9.59896385150862 28.042608240548525 0 0 0
1132 35 1 10.78922590753876 11.391449114169918 19.014501246588058 0 0 1
853 8 1 15.87982252598952 9.642884081379428 32.178600761722805 0 0 0
851 8 1 14.296093413267501 9.61572073278342 30.1949318122887 0 0 0
8802 57 1 4.476028137354097 16.523438469354538 21.673973227627084 0 0 0
9510 51 1 10.302875891446162 25.451573402225165 29.433952551598956 0 0 0
847 8 1 11.236710012931548 9.642084321664171 26.109134159837982 0 0 0
1753 12 1 3.6241371964396225 18.66737595356411 13.429218625222493 0 0 0
8812 57 1 12.214674886235183 16.564661154799225 31.64615097880351 0 0 0
4034 28 1 15.652136087466769 17.737694079719112 18.687738197828395 0 0 0
601 57 1 2.5266216770813212 5.116303301711119 12.536561666339313 0 0 0
4036 28 1 16.928229072781665 17.97977681414802 20.81873149118301 0 0 0
4030 28 1 13.06891697854821 17.863766989841476 14.205420807250306 0 0 0
4031 28 1 14.015488435012239 18.57709506990744 15.146098583995457 0 0 0
4485 28 1 16.17911973300465 22.757793917125564 18.0983722062186 0 0 0
1532 11 1 12.410588114246726 15.574203906145234 20.839745799279548 0 0 0
7692 50 1 4.1150905064704055 5.4173402530979065 28.02062359503879 0 0 0
3801 24 1 17.532857089099597 16.90104294552485 13.288395033328602 0 0 0
9201 60 1 12.047293432061918 21.011470083447232 31.8079502860028 0 0 0
7303 48 1 3.994577564941664 0.7422423288793643 27.964797598158352 0 0 0
1547 12 1 16.682251093989706 18.547944060012846 32.12692950628255 0 0 0
7910 31 1 9.864020913193507 7.429408587067701 30.76197780157958 0 0 0
2821 9 1 16.70705269618831 5.666021874852829 19.446804255995545 0 0 0
6253 52 1 2.0545020148769146 15.883434337696096 31.225965035966798 0 0 0
9200 60 1 11.131407873872464 20.297701305016062 30.780401201400494 0 0 0
852 8 1 15.509719520265895 8.97748704418486 30.86227143048898 0 0 0
4561 29 1 11.59649875234844 22.745005838136148 11.971524585943737 0 0 1
4185 24 1 17.47129269773194 20.60072132475898 14.370821634542928 0 0 0
7688 50 1 0.9014061309710257 5.568970023823106 23.99423762710358 0 0 0
378 6 1 9.774424359709123 2.9431407854738443 16.776205082411135 0 0 0
8131 39 1 4.250099430952432 10.089936548888844 28.120181565420413 0 0 0
7604 48 1 9.741440383228595 2.5083459182514436 28.770777072021005 0 0 0
9284 61 1 2.8039807291668746 23.297684004646687 25.67001716511534 0 0 0
8127 39 1 1.125373197972106 10.185272423639649 24.1330154039875 1 0 0
303 3 1 9.667889875495309 3.3093585326749144 15.274575053237767 0 0 1
1453 10 1 9.531930393649576 16.412043091763135 15.18766407719965 0 0 1
2372 16 1 15.253996271435554 1.2402733831151813 17.635905110165236 0 0 0
1454 10 1 9.67889140137347 15.905193903478514 16.652494288063544 0 0 1
7899 31 1 2.5338549736066907 7.580858455237595 18.828242396609806 1 0 0
9509 51 1 9.790947208441507 24.689942393471657 28.28701340504481 0 0 0
2360 14 1 9.356218744047615 26.01163009056927 15.023967472130098 0 0 0
6630 55 1 0.8572130827157831 20.322079291109052 28.806455572747698 1 0 0
1224 61 1 16.61104741667584 14.249203946950072 32.12057164813493 0 0 0
1129 35 1 8.862420038770233 12.062137484858862 15.763901273609742 0 0 1
1133 35 1 12.200608228404507 11.746455207309609 19.48275624188188 0 0 1
3799 23 1 11.150310802436968 13.829202235006886 12.644845414248218 0 0 1
7694 50 1 5.5292417696159095 5.408460842284912 29.989896725976234 0 0 0
7304 48 1 5.324837127886294 0.4507680275546556 28.529944326147096 0 0 0
7305 48 1 5.53522989896683 0.8026073861673987 29.974141539580145 0 0 0
7300 48 1 2.481705267959717 0.5445651132771736 24.35710555198094 0 0 0
4569 22 1 17.76623954225687 24.64100927671999 14.099377728760572 0 0 0
8803 57 1 4.831762999382779 15.766181895938736 22.933128756773975 0 0 0
9291 61 1 7.98406431662435 22.56268521714542 32.80334792757033 0 0 0
9202 60 1 12.877946917827941 20.09164992893902 32.75728737555704 0 0 0
7594 48 1 2.3536496204422592 2.6844238209630236 18.4925429908702 0 0 0
7595 48 1 2.9634118429622545 3.368408742247186 19.7301579029998 0 0 0
7596 48 1 4.155726585124986 2.6720557650471446 20.31280644876513 0 0 0
7597 48 1 4.501162088690987 3.3315655651521077 21.644617617052273 0 0 0
7598 48 1 5.6118247581542695 2.6681100455743487 22.366703232668392 0 0 0
7599 48 1 5.86310589798697 3.456733066884248 23.638734940819607 0 0 0
7600 48 1 6.90195718681657 2.6586139515251235 24.485288704427482 0 0 0
7601 48 1 7.171669090560931 3.2300747019790497 25.863447009104625 0 0 0
7602 48 1 8.119370072951966 2.5165705396940834 26.810039837441735 0 0 0
2203 14 1 3.3207607396265364 23.24050486827672 12.890430662123423 0 0 0
9283 61 1 2.4744514710056555 22.663489237007315 24.270164853725447 0 0 0
4970 33 1 1.3430517509153121 2.737649087308978 31.252126515864198 0 0 0
7603 48 1 8.624962816249237 3.2486458286395723 28.00215536821523 0 0 0
4971 33 1 2.5138909338855617 3.1112908011090874 32.09425779466035 0 0 0
1996 14 1 15.875134697348077 22.15836076398776 30.602736357835933 0 0 0
7900 31 1 2.6854333323456947 7.656548132058166 20.369847215035215 0 0 0
9289 61 1 6.739695797149019 22.646009856258758 30.61834225087485 0 0 0
3414 38 1 12.619513598318433 9.439656801787285 14.644766306836008 0 0 1
8893 44 1 1.8907037893170837 18.81522906952753 23.515686961404377 0 0 0
833 8 1 1.0990683783990958 9.975837078397541 11.692934828618673 0 0 0
9 2 1 14.408804049097403 26.5914437190143 28.696637337940917 0 -1 0
8434 2 1 10.116302605711894 12.19719350135054 30.347003935457842 0 0 0
8133 39 1 5.920979687733503 10.129630788206397 29.985565535171098 0 0 0
7903 31 1 5.629887362642628 7.329220797581173 22.939674934034933 0 0 0
7904 31 1 5.6214431315554965 7.815793818547631 24.375895579727803 0 0 0
7905 31 1 6.817182379078645 7.159271361707331 25.02779506965608 0 0 0
7906 31 1 7.0884228078450136 7.783887005282733 26.404173140514015 0 0 0
7907 31 1 8.232791364417132 7.073613314438664 27.12038970017451 0 0 0
7908 31 1 8.60561914473448 7.632901963968049 28.47153403177934 0 0 0
1450 10 1 6.717015561952344 15.924302314178474 12.501965726630885 0 0 1
1980 45 1 6.80702892185576 20.415056875919703 12.405403685361915 0 0 0
603 57 1 3.9534641865966353 4.612000051672278 14.544051220536796 0 0 0
217 17 1 2.0703573243907964 0.31498196870159106 12.541656663487204 0 0 1
844 8 1 9.706177966410095 9.274469837438623 22.559484620009222 0 0 0
1131 35 1 10.554970236016494 11.721012570358601 17.51099192268876 0 0 1
7083 47 1 2.259376068480614 24.964677905644137 31.970808021954458 0 0 0
4029 28 1 12.572762432506764 18.739676092432557 13.035719549888366 0 0 0
9287 61 1 5.233963948653706 22.677872741448414 28.52860328891727 0 0 0
1770 45 1 17.260718563422998 20.229514886669804 26.73599637989758 0 0 0
6633 55 1 2.98701801152915 20.74922018874394 32.09915235485298 0 0 0
7606 48 1 11.282613656087676 2.5717701060124947 30.819437981331234 0 0 0
7693 50 1 5.043851290691994 4.576484506218962 28.910717990605217 0 0 0
7593 48 1 1.2393916337865356 3.444036060291525 17.870145293755048 0 0 0
8130 39 1 3.0717739617104414 9.408032855008024 27.482633519800245 0 0 0
1981 45 1 7.888029949571153 21.021121802077293 13.277162116292438 0 0 0
8805 57 1 6.456142805969707 15.912414536225253 24.91104652566987 0 0 0
6632 55 1 2.132659009429797 19.99249576494974 31.08818200217095 0 0 0
2819 9 1 15.064326342815361 5.814752461017155 17.519721779369057 0 0 0
8424 2 1 2.813347744895418 12.384850459789703 20.11002769573814 0 0 0
8425 2 1 3.3623610463156846 11.510304738120793 21.218118796456203 0 0 0
8426 2 1 4.32563311494948 12.260751142221453 22.123804736359567 0 0 0
8427 2 1 4.919281942988272 11.446262427786744 23.285632085743714 0 0 0
8428 2 1 5.837522669702106 12.295353963994192 24.181015674085014 0 0 0
8429 2 1 6.6232718260129095 11.422587488333987 25.108525259415213 0 0 0
8430 2 1 7.311771525235407 12.23763157566175 26.166854121443308 0 0 0
8431 2 1 8.337810940936233 11.45518299307514 26.946570302876125 0 0 0
8432 2 1 8.723427706953588 12.229891968158565 28.181282485579505 0 0 0
9186 60 1 0.5708790219929878 20.524113307196533 16.30246439979115 0 0 0
7912 31 1 11.4015195931716 7.417968107021087 32.73948045306794 0 0 0
8510 60 1 1.5333819054296076 13.847442072422357 25.035280858099362 0 0 0
8513 60 1 4.442373733875617 14.198321450805274 27.785453503966107 0 0 0
1771 45 1 18.201964785654344 21.100270834994742 27.545921404013775 0 0 0
2600 1 1 17.45916484749715 2.686751195762646 14.330234729601642 0 0 0
7901 31 1 4.09247566506815 7.420076421571139 20.771852320357038 0 0 0
9281 61 1 0.8626298454067461 22.815415535999396 22.251638241129477 0 0 0
3720 22 1 13.980885679366963 14.113227542567728 15.304776063260324 0 0 0
7081 47 1 0.7060540444324462 25.193510411526912 30.092345374811586 0 0 0
9286 61 1 4.298705248242676 23.44041949767505 27.604041246863673 0 0 0
4407 28 1 16.360894709966935 23.219618161708482 19.579643546946986 0 0 0
5866 39 1 0.9583614692802327 12.142280899067773 30.175770739374734 0 0 0
8436 2 1 11.793363385793901 12.11344654769473 32.18024460407794 0 0 0
1222 61 1 15.172643255812087 14.078376061912259 30.024662383148282 0 0 0
8806 57 1 7.312329860761473 16.683351457640367 25.833892846407185 0 0 0
8807 57 1 7.8498266052208 15.859382654458567 27.012050117725558 0 0 0
8808 57 1 8.656296005686162 16.65867149658605 27.9802430785855 0 0 0
8809 57 1 9.506705560832248 15.849014335171951 28.9249218341706 0 0 0
8810 57 1 10.331644976649477 16.6953768037148 29.92868467977447 0 0 0
8811 57 1 11.187136094016207 15.79080122478029 30.868054568528798 0 0 0
8128 39 1 1.4557456067994428 9.559660362463717 25.507166492018982 0 0 0
8134 39 1 6.5174643958770355 9.361015907840875 31.191450393008655 0 0 0
1126 35 1 6.765822527119202 11.431293058215601 12.571372775728118 0 0 1
8511 60 1 2.939468391402541 14.049439103948906 25.620260392309277 0 0 0
6631 55 1 1.759798473891541 20.908383911059996 29.94264814158783 1 0 0
4483 28 1 14.562603607916827 22.642274359812426 16.088485311113786 0 0 0
2599 1 1 16.82867644008478 3.547198908553944 13.249336389336792 0 0 0
1546 12 1 16.18749356744771 17.917609714783335 30.8213273690209 0 0 0
4035 28 1 16.616179866457827 18.593441121802556 19.509696703892335 0 0 0