LAMMPS data file via write_data, version 23 Jun 2022, timestep = 1000

8487 atoms
2 atom types
8471 bonds
3 bond types
8455 angles
3 angle types
8439 dihedrals
3 dihedral types

0 36.89775039 xlo xhi
0 26.67072 ylo yhi
0 236.7516044 zlo zhi
0 7.448720975 0 xy xz yz

Masses

1 14
2 15

Pair Coeffs # lj/cut/omp

1 0.0914 3.95
2 0.1947 3.75

Bond Coeffs # harmonic/omp

1 449.5 1.53
2 449.5 1.53
3 449.5 1.53

Angle Coeffs # harmonic/omp

1 62.0967 114
2 62.0967 114
3 62.0967 114

Dihedral Coeffs # opls/omp

1 1.411 -0.271 3.145 0
2 1.411 -0.271 3.145 0
3 1.411 -0.271 3.145 0

Atoms # molecular

1 8 1 7.3467863868027665 1.4604400981713244 8.512720927319492 0 0 0
2 8 1 8.742836832815991 1.2568482621321808 9.146300609150215 0 0 0
3 8 1 8.8343719028577 1.8617663073407265 10.61204910423812 0 0 0
4 8 1 10.079856047290695 1.4149153639330383 11.453071488660619 0 0 0
5 8 1 10.11721302092177 1.8951410733232597 12.898850340957761 0 0 0
6 8 1 11.499062834301972 1.689656582308656 13.479460461066036 0 0 0
7 8 1 11.684784895413575 2.1543200346451123 14.982657249441067 0 0 0
8 8 1 12.9001233452883 1.6457901591214177 15.690194326145493 0 0 0
9 8 1 13.054611240842627 1.93284122096444 17.202272789407527 0 0 0
10 8 1 14.277719317578107 1.2988386017862252 17.927365577770786 0 0 0
11 8 1 14.2951002016154 1.599445153487334 19.404779060202177 0 0 0
12 8 1 15.621357032142582 1.30490757935247 20.06398220516836 0 0 0
13 8 1 15.658762861337998 1.429348304679787 21.58079565705518 0 0 0
14 8 1 17.043723233941645 1.3844939278372144 22.226425601725595 0 0 0
236 60 1 18.663619732238214 4.097607491622387 17.781708244857274 0 0 0
8201 63 1 1.0034545769425829 23.25870077408548 12.391919430639362 0 0 0
218 8 1 3.074252880132937 0.7973145506689443 0.577012939387958 0 0 0
219 8 1 3.1698938905427902 1.153661198281698 2.0762882881767504 0 0 0
220 8 1 4.534356755664039 1.021573075517584 2.7125286164977895 0 0 0
221 8 1 4.5300593186254865 1.5027628230950252 4.191094475809333 0 0 0
222 8 1 5.781674527124059 0.9631978609338163 4.895897529297986 0 0 0
223 8 1 6.067963586219492 1.600245190581837 6.26826305516035 0 0 0
224 8 1 7.261275500553213 1.0519345889994145 7.075724503850919 0 0 0
225 60 1 10.71532339284607 3.546551597129132 6.090824523671362 0 0 0
226 60 1 12.098925204153288 3.9515183382771446 6.622774504908649 0 0 0
227 60 1 12.238372980352032 3.740466043303684 8.12392114266207 0 0 0
228 60 1 13.580092085863198 3.871778034165971 8.86607641544309 0 0 0
229 60 1 13.527316804809312 3.716979487756951 10.420276963413583 0 0 0
230 60 1 14.844031114996927 4.049363005057917 11.124480326029877 0 0 0
231 60 1 14.66522849269697 3.9399069272363776 12.670205036795837 0 0 0
232 60 1 15.966645761299489 4.273795630914991 13.347027943857983 0 0 0
233 60 1 16.026367659264313 4.014873874983414 14.83115263774033 0 0 0
234 60 1 17.39457853393553 4.30398140325272 15.559058538262148 0 0 0
235 60 1 17.339020076362573 3.9282858153484765 17.040463204348296 0 0 0
7309 36 1 1.291181007990175 14.344738304701952 11.030672854327552 0 0 0
2231 12 1 18.983652806497513 26.293122264650663 17.934305118746224 0 0 0
444 60 1 7.566112084460181 3.4671474303085112 0.48487515177634866 0 0 0
445 60 1 7.695122202151991 3.5611407253592726 1.9975192540734519 0 0 0
446 60 1 9.10010112500361 3.7731126368189223 2.4890305123583047 0 0 0
447 60 1 9.174829405156832 3.75040794291013 3.9976463145845056 0 0 0
448 60 1 10.566030914750993 3.7840265834728775 4.616886964040273 0 0 0
449 6 1 7.0230746498223775 5.889952852801594 7.981555241483061 0 0 0
450 6 1 8.403589879228274 5.642198309938052 8.616276757606819 0 0 0
451 6 1 8.43153583813599 5.931419983148444 10.161490132379623 0 0 0
452 6 1 9.777710442642345 5.695104456417148 10.858164935997035 0 0 0
453 6 1 9.863398485628927 6.185012305554135 12.327930837767521 0 0 0
454 6 1 11.213936625485731 5.942691367373971 13.0637322736915 0 0 0
455 6 1 11.164091135763684 6.329636633280203 14.550699144748094 0 0 0
456 6 1 12.465010122358684 6.085728270227132 15.294300479913314 0 0 0
457 6 1 12.387775066641874 6.402607315285043 16.789914915525962 0 0 0
458 6 1 13.50423944828297 5.883318482749308 17.611981205038347 0 0 0
459 6 1 13.632972350012595 6.355395083448939 19.074311422956832 0 0 0
460 6 1 14.81006843581407 5.707575873841951 19.785657217834274 0 0 0
461 6 1 15.078987336285051 6.272279260345738 21.165008607694798 0 0 0
462 6 1 16.26265246194506 5.594926951549461 21.967774615026617 0 0 0
463 6 1 16.505451015470413 5.961289490781665 23.4267042119387 0 0 0
8200 63 1 0.976419547707579 22.802715559549746 10.94593925722191 0 0 0
739 8 1 18.56068770442506 8.571615397202788 17.99678018064416 0 0 0
667 6 1 2.823709156612545 5.8786564953698495 1.6636914272915693 0 0 0
668 6 1 4.235582129255826 5.936130948467151 2.2363535125448677 0 0 0
669 6 1 4.224229237472256 5.951242991418623 3.731168139500049 0 0 0
670 6 1 5.5321451623120685 5.588133786208995 4.378986654228457 0 0 0
671 6 1 5.603108076830168 5.918855809639985 5.873954990842245 0 0 0
672 6 1 7.006607736341335 5.731910892133577 6.456304466528808 0 0 0
728 8 1 11.17294753935804 7.511931097773872 5.89306128659318 0 0 0
729 8 1 11.943069977613016 8.385222289689438 6.928105188420286 0 0 0
730 8 1 12.17115611961091 7.8345059649205515 8.359001665009163 0 0 0
731 8 1 13.315189234742398 8.471874504227086 9.135507657587695 0 0 0
732 8 1 13.475112551751618 7.944085245489358 10.546707777648665 0 0 0
733 8 1 14.82904427838054 8.298106946707275 11.159025991121812 0 0 0
734 8 1 14.916788803578633 7.93170550792223 12.661107141148351 0 0 0
735 8 1 16.13542965445786 8.42907788569355 13.4744949773911 0 0 0
736 8 1 16.0147046231835 8.129078463226866 15.011515691128563 0 0 0
737 8 1 17.300428210638504 8.405730463220767 15.828721390412916 0 0 0
738 8 1 17.303213866090445 8.166872884209855 17.324987210451624 0 0 0
6413 31 1 0.977907377928932 5.416657971052805 11.746901074214906 0 0 0
8286 1 1 7.846510266456106 25.603462780176002 16.878948186836418 0 0 0
760 8 1 7.668994925770387 8.071334931213052 0.3905478100867097 0 0 0
761 8 1 8.073885315202226 7.47049500553368 1.757924789998951 0 0 0
762 8 1 9.101420150524765 8.275102944240516 2.5583885433503957 0 0 0
763 8 1 9.582018234722018 7.60398871568701 3.7988210398808073 0 0 0
764 8 1 10.590078895646112 8.355221488096115 4.7037474335997995 0 0 0
765 6 1 7.502235966167522 10.204800077104386 7.928799631045452 0 0 0
766 6 1 8.813913531242214 9.936924056610685 8.701240071121228 0 0 0
767 6 1 8.803794182048234 10.384643268412301 10.181812323270588 0 0 0
768 6 1 10.147124044919586 10.292713750865527 10.904205759342968 0 0 0
769 6 1 10.183259955259006 10.62524351767772 12.39695657184292 0 0 0
770 6 1 11.56272359405161 10.574694568109967 13.09731452671845 0 0 0
771 6 1 11.571278033330406 10.972929029370334 14.530280803183611 0 0 0
772 6 1 12.655436801428223 10.264829088473986 15.302812347911198 0 0 0
773 6 1 12.579433920252658 10.549666868676265 16.814762291795297 0 0 0
774 6 1 13.775851634988461 10.091893589318662 17.644260699730875 0 0 0
775 6 1 13.753827778740105 10.40009626789291 19.148373816402724 0 0 0
776 6 1 15.074603140399478 10.252540558539868 19.888520700135654 0 0 0
777 6 1 15.049019485118556 10.62142296841112 21.412742006629593 0 0 0
778 6 1 16.32058906468139 10.20198794111441 22.120648566245112 0 0 0
779 6 1 16.322886934714365 10.413145793470443 23.640320555955434 0 0 0
8292 1 1 11.606317547823277 25.705846156192553 23.479376735001562 0 0 0
3786 24 1 16.932777370211205 17.592908424396263 0.35720921032834113 0 0 0
983 6 1 3.102482314814463 10.442995631235041 1.6714663351025456 0 0 0
984 6 1 4.491991528206821 10.121517990539108 2.2008762001702094 0 0 0
985 6 1 4.760116188871596 10.4565334145942 3.6877327955105446 0 0 0
986 6 1 6.0128731156375235 9.855506934504458 4.2473825245064365 0 0 0
987 6 1 6.236043728671484 10.302439455799252 5.681888960666606 0 0 0
988 6 1 7.5601872056821176 9.8955350002425 6.402823367599236 0 0 0
989 13 1 10.727294107731836 11.970009407996987 5.565464049897479 0 0 0
990 13 1 11.91054900933948 12.726818567987214 6.253268906681876 0 0 0
991 13 1 11.958877512130504 12.377322851722216 7.765778998241013 0 0 0
992 13 1 13.23142926835055 12.877901885096604 8.433746632206711 0 0 0
993 13 1 13.456602124547441 12.399578933781173 9.885748288068097 0 0 0
994 13 1 14.634698132130689 13.099081655149886 10.570631537696629 0 0 0
995 13 1 14.867846992654432 12.661175295080191 12.05142428820828 0 0 0
996 13 1 15.963084746985745 13.370955288569435 12.842665414834784 0 0 0
997 13 1 16.180232642411042 12.83405356225241 14.24612875245802 0 0 0
998 13 1 17.239785812035155 13.548747964311545 15.146535458294272 0 0 0
999 13 1 17.445134810695603 12.890481939444014 16.50806724442052 0 0 0
8275 1 1 1.0304218231856241 25.893559283328152 4.769722109640333 0 0 0
1448 44 1 18.762805555729376 17.654934278905003 17.955080868940744 0 0 0
666 6 1 2.765453492744029 5.414696090905098 0.19039161535626803 0 0 0
1209 13 1 7.879434788445342 12.243133578030012 1.316450141840999 0 0 0
1210 13 1 9.036930949344441 12.885721063813383 2.031226190114569 0 0 0
1211 13 1 9.309589635144432 12.199652984985471 3.388165778546024 0 0 0
1212 13 1 10.570152667877288 12.602016442691667 4.186109022040057 0 0 0
1213 48 1 7.871957296519806 14.994817102229774 7.911842541236576 0 0 0
1214 48 1 8.83921014596605 14.270677996793971 8.854836464007926 0 0 0
1215 48 1 9.089886123556465 14.967616106511167 10.208709496738422 0 0 0
1216 48 1 10.16401638756025 14.376234803990018 11.12161397310481 0 0 0
1217 48 1 10.201494848053988 15.066624645113611 12.489145807783144 0 0 0
1218 48 1 11.333824558883784 14.484527463612483 13.318472596061362 0 0 0
1219 48 1 11.477164660413072 15.161196894522988 14.675216739876932 0 0 0
1220 48 1 12.527014096455398 14.517471827122318 15.60561535766169 0 0 0
1221 48 1 12.801247185713947 15.11449845432053 17.01579407676183 0 0 0
1222 48 1 13.741002218066944 14.260767768029677 17.932327631110603 0 0 0
1223 48 1 14.222612897834207 14.99698230291487 19.219766091413234 0 0 0
1224 48 1 15.22753315695453 14.262408653464735 20.10649182625129 0 0 0
1225 48 1 15.31682842607448 14.752596424611626 21.56919691415816 0 0 0
1226 48 1 16.509127286926507 14.19205204393359 22.368958351513356 0 0 0
3116 21 1 18.321972214092273 12.98037144378285 2.5409979943145093 0 0 0
8287 1 1 8.984641903242315 26.162486162591993 17.73772803453786 0 0 0
1430 48 1 3.0468590939429907 14.207822616818264 0.2447276918954131 0 0 0
1431 48 1 3.727146188694258 14.934786705016391 1.3946006661081902 0 0 0
1432 48 1 4.768775784466453 14.141139262811155 2.2611520014609954 0 0 0
1433 48 1 5.2113735232616545 14.932434790836433 3.4310160894496686 0 0 0
1434 48 1 6.063340298270167 14.147901848549603 4.475486114747932 0 0 0
1435 48 1 6.508705300002272 14.90661130486289 5.74219673420489 0 0 0
1436 48 1 7.456264535085934 14.177691648261245 6.691126857789087 0 0 0
1437 44 1 11.313637571767021 16.753047865469345 6.185517075296033 0 0 0
1438 44 1 12.595790385495572 17.30140989803754 6.823414720833068 0 0 0
1439 44 1 12.61639436621152 16.925324398844012 8.289399164593382 0 0 0
1440 44 1 13.89577334288523 17.473910937184584 9.001529173752768 0 0 0
1441 44 1 14.123906440151634 17.01789208640889 10.44253289185764 0 0 0
1442 44 1 15.321666179694613 17.567674666100444 11.14929542145544 0 0 0
1443 44 1 15.321346089874258 17.248368308425484 12.681297757618534 0 0 0
1444 44 1 16.589308848811612 17.50429361078935 13.474109779676631 0 0 0
1445 44 1 16.40954858219312 17.297872603951962 14.961144830654248 0 0 0
1446 44 1 17.778564524315996 17.54557319745572 15.664306284493348 0 0 0
1447 44 1 17.64279066128063 17.09278524617633 17.12364247034854 0 0 0
8209 63 1 6.165001483180495 23.251453250961593 21.17621401231303 0 0 0
8208 63 1 6.039042987087846 22.887337206543204 19.740569159517566 0 0 0
1656 44 1 7.9578254572674 16.84568286140758 0.6365411536299725 0 0 0
1657 44 1 8.158453829428248 16.61177339539043 2.1017228799330545 0 0 0
1658 44 1 9.599597032463944 16.893780790940333 2.5620495629676756 0 0 0
1659 44 1 9.72288041372539 16.58353889495078 4.124803072239964 0 0 0
1660 44 1 11.079393934061084 17.029094043687063 4.7019477781883126 0 0 0
1661 51 1 8.108496605410934 19.390489163743833 8.05765871621345 0 0 0
1662 51 1 9.21808732337633 18.76362729724604 8.877345159363118 0 0 0
1663 51 1 9.322365117716943 19.60574787657974 10.180779536149874 0 0 0
1664 51 1 10.45827254740195 19.06943761852977 10.974294160869956 0 0 0
1665 51 1 10.710235995482146 19.85769561196928 12.23794024429487 0 0 0
1666 51 1 11.660056749000642 19.173685095124092 13.181209001094828 0 0 0
1667 51 1 11.77227901775759 19.79519920460456 14.60646897332834 0 0 0
1668 51 1 12.737123300721208 18.914222641007527 15.469639230437611 0 0 0
1669 51 1 13.188108488206256 19.59284339152099 16.753931779528635 0 0 0
1670 51 1 14.052108647569028 18.81088189864827 17.695540091401384 0 0 0
1671 51 1 14.436146958968166 19.692009511506413 18.86940977842279 0 0 0
1672 51 1 15.295955017700212 18.94067942159729 19.86311608907469 0 0 0
1673 51 1 15.479351575649728 19.506284072755545 21.306083733595997 0 0 0
1674 51 1 16.49884018127066 18.75769035027491 22.180357193443214 0 0 0
1675 51 1 16.74953711530527 19.41365303797502 23.59280348825293 0 0 0
8207 63 1 4.740872763178178 23.17942865650262 18.998827490424368 0 0 0
1878 51 1 3.3068124114927997 18.56197866087844 0.6096522298357204 0 0 0
1879 51 1 3.723921123992035 19.276801256516844 1.8342509771132727 0 0 0
1880 51 1 4.851365725114984 18.611784405857208 2.6806055097844994 0 0 0
1881 51 1 5.0344341022739805 19.261122359758915 4.0306835851693865 0 0 0
1882 51 1 6.098044683212663 18.55160193847547 4.82570197463032 0 0 0
1883 51 1 6.552559145660633 19.30755271037658 6.053950450339797 0 0 0
1884 51 1 7.63464185266502 18.586618651041494 6.858337249790361 0 0 0
1885 11 1 10.726295441739778 21.142510634430288 5.860721958328583 0 0 0
1886 11 1 11.821353893370736 21.884834839408185 6.630373550470997 0 0 0
1887 11 1 12.112311502998475 21.301164000124636 8.005580518112547 0 0 0
1888 11 1 13.267461676331981 21.834758305666853 8.74320982011791 0 0 0
1889 11 1 13.473788397771122 21.300555724148115 10.125234860935908 0 0 0
1890 11 1 14.491351706443139 22.00319043061225 10.977937878720493 0 0 0
1891 11 1 14.663341442981839 21.379004908964376 12.387376514175896 0 0 0
1892 11 1 15.592380486552408 22.153097033102842 13.281858143975374 0 0 0
1893 11 1 16.047521650116916 21.332220874163358 14.545856694821069 0 0 0
1894 11 1 16.970126461795562 22.014411106767284 15.538494834949523 0 0 0
1895 11 1 17.29362734415535 21.135509426803022 16.739043317729447 0 0 0
1001 13 1 18.61429310156367 12.742641716331205 18.75604488639078 0 0 0
8285 1 1 7.791357822550056 26.17845631886123 15.454898256019733 0 0 0
2104 11 1 7.386691317948806 21.63229837582219 0.4041302315918178 0 0 0
2105 11 1 7.714199848130453 20.99599143651212 1.7142512760820194 0 0 0
2106 11 1 8.895504649614061 21.674181630440373 2.47929839872656 0 0 0
2107 11 1 9.37363343253279 20.98415336329748 3.717674642135764 0 0 0
2108 11 1 10.289865165525168 21.817498430690073 4.617819243703056 0 0 0
2109 53 1 7.826071180005878 24.21158900842054 8.35028050770331 0 0 0
2110 53 1 9.041695405503964 23.604737371953597 8.996237738273596 0 0 0
2111 53 1 9.240975970288854 24.122558720077333 10.403731228561021 0 0 0
2112 53 1 10.42454179739767 23.581988497437557 11.233405514408854 0 0 0
2113 53 1 10.502745564987318 24.01130119790464 12.650618911947445 0 0 0
2114 53 1 11.594978298201891 23.583570460154608 13.534135819849054 0 0 0
2115 53 1 11.666054149394906 24.366839311650548 14.816503889095092 0 0 0
2116 53 1 12.812133793353256 23.87148999932286 15.688215013260248 0 0 0
2117 53 1 12.864679855923818 24.41733422197703 17.137605741932436 0 0 0
2118 53 1 14.111375570671257 24.01083088146345 17.94159394525171 0 0 0
2119 53 1 14.012504035364401 24.114296507343795 19.462238723569193 0 0 0
2120 53 1 15.38211475068596 23.954120634135094 20.00221166770897 0 0 0
2121 53 1 15.389767449606406 23.85753515910598 21.541928657053592 0 0 0
2122 53 1 16.784389239575745 23.67620856922308 22.184458549176302 0 0 0
1449 44 1 18.903281762432762 17.097188121887644 19.348562164952664 0 0 0
8291 1 1 11.430405346372623 26.112964870680525 22.034785334757625 0 0 0
2139 53 1 3.1829036194741396 22.765281396066882 0.972796917471887 0 0 0
2140 53 1 3.4372839579630003 23.471878836250376 2.2567335672819633 0 0 0
2141 53 1 4.591074715637938 22.927504547718677 3.0195174197767516 0 0 0
2142 53 1 4.9090405492640485 23.836033573638964 4.230104015919852 0 0 0
2143 53 1 6.19300218304014 23.373946506306975 4.945730920189245 0 0 0
2144 53 1 6.36446121812907 24.126420205270666 6.199992301530755 0 0 0
2145 53 1 7.580330376306743 23.561853033437366 6.956710955223486 0 0 0
2220 12 1 10.856833078866767 25.87559864228649 6.303545799078096 0 0 0
2221 12 1 12.033221051668827 26.660189535479322 7.021835718443682 0 0 0
2222 12 1 12.284168481088845 26.08355904023273 8.440645439830716 0 0 0
2223 12 1 13.612017668081457 26.460338785029354 9.160604416215406 0 0 0
2224 12 1 13.899472868735451 25.865738914403128 10.53350161349955 0 0 0
2225 12 1 15.014026384026211 26.350498129865844 11.40649479235234 0 0 0
2226 12 1 14.988267549781893 25.86403182704137 12.85832121262436 0 0 0
2227 12 1 16.197031788881194 26.362105961722904 13.640209678184736 0 0 0
2228 12 1 16.320495871510015 25.885472908181942 15.049090149554779 0 0 0
2229 12 1 17.53003444734933 26.459347547875254 15.838671008540512 0 0 0
2230 12 1 17.709432110756914 25.836131125106117 17.234008774679456 0 0 0
8211 63 1 7.513106500433794 23.53350547847921 23.3205255806004 0 0 0
8210 63 1 7.561512324235555 23.282958859602264 21.8291561828817 0 0 0
2264 12 1 7.534489981978261 26.043483117368595 0.776573755599525 0 0 0
2265 12 1 7.695617725964364 25.867469603583963 2.2893763570499104 0 0 0
2266 12 1 9.023097705780055 26.201456871323803 2.7830832180528033 0 0 0
2267 12 1 9.29947727567088 25.626313679678926 4.204235241909535 0 0 0
2268 12 1 10.422179316101778 26.37187901683578 4.962460573624872 0 0 0
2269 14 1 14.230570747739534 1.7225073632142924 4.202201981848619 0 0 0
2270 14 1 15.516479212306898 1.3486927920008622 4.876874744342774 0 0 0
2271 14 1 15.641253613914433 1.8435663411218008 6.3254373494130895 0 0 0
2272 14 1 16.963337998868667 1.498177507689616 7.031165059729893 0 0 0
2273 14 1 17.100497272586953 2.156204755454083 8.388025322331183 0 0 0
2274 14 1 18.175756561352596 1.4001850879997375 9.170772924476559 0 0 0
2275 14 1 18.373155664367054 2.0054423554866765 10.54981645462495 0 0 0
2490 14 1 12.556841272385142 0.9777168595652713 0.7137192000970112 0 0 0
2491 14 1 12.682377306116177 1.4529142426879957 2.139151809946772 0 0 0
2492 14 1 14.050063712444944 1.088730443858951 2.802607241344471 0 0 0
2493 58 1 17.04964084849488 3.3685109814412777 1.7194018314561774 0 0 0
2494 58 1 18.113200842759213 4.025420264358026 2.5455786983936917 0 0 0
7527 57 1 0.29489538128745235 16.912834006744777 2.3525362258344993 1 0 0
2529 58 1 16.612735789082716 3.993388534467027 0.4020961936352869 0 0 0
2567 16 1 14.003018796084254 6.531748272035609 3.9729806242212877 0 0 0
2568 16 1 15.235922717892594 6.005362433352943 4.732588211783392 0 0 0
2569 16 1 15.459806066472533 6.601170373847479 6.156873164793953 0 0 0
2570 16 1 16.765045118740463 6.25401842885136 6.899800668984904 0 0 0
2571 16 1 16.944166039368742 6.724324698825271 8.363002338676623 0 0 0
2572 16 1 18.294499691656142 6.256897150724411 8.938848068278249 0 0 0
2573 16 1 18.571931611344976 6.7349160654869795 10.334071847260502 0 0 0
2788 16 1 12.224178496660562 5.694608527554015 0.4164194187073848 0 0 0
2789 16 1 12.604315093678327 6.390292562044465 1.7474655516492452 0 0 0
2790 16 1 13.648700412204754 5.747838800869367 2.7076712645260033 0 0 0
2791 50 1 17.553458484650566 7.574746488246021 1.5712367393445008 0 0 0
982 6 1 3.0123164503837843 10.066318020508472 0.1894489135986081 0 0 0
1897 11 1 18.602810211441582 21.184839887709153 18.98953760550945 0 0 0
2853 50 1 17.20240830897606 8.299765186230019 0.3408597127542824 0 0 0
2891 18 1 13.79810738882875 10.4188638989037 3.3537736782761636 0 0 0
2892 18 1 15.1454067885222 10.27228215842253 4.011019674889203 0 0 0
2893 18 1 15.206407130597217 10.473130261495546 5.507843749981043 0 0 0
2894 18 1 16.62942429301117 10.328185639471334 6.112002796481082 0 0 0
2895 18 1 16.605519664162166 10.576515102945015 7.623678021728387 0 0 0
2896 18 1 17.914529992080933 10.46698278165942 8.32505239072837 0 0 0
2897 18 1 17.890341964033862 10.594494384670567 9.86007111295424 0 0 0
4330 18 1 18.435650061858528 26.38291809935171 2.726403727244776 0 0 0
3113 18 1 12.315870915620064 10.162022879077018 1.314156320565304 0 0 0
3114 18 1 13.760556105951554 10.270444144177995 1.8525949262484402 0 0 0
3115 21 1 17.24539613121285 12.35166076905698 1.6387898753468362 0 0 0
8288 1 1 8.981430999178674 25.693706466864338 19.138123547584765 0 0 0
3338 21 1 17.098335892950097 13.032794458901925 0.2800461486987763 0 0 0
7080 55 1 0.4299777617142282 12.102275768116254 3.6901524966965287 1 0 0
3339 11 1 13.919843785437363 14.857516961621533 3.593283516830592 0 0 0
3340 11 1 15.187704619825128 14.359719714605777 4.276676523900684 0 0 0
3341 11 1 15.461827255838811 14.928192150475954 5.712308623511484 0 0 0
3342 11 1 16.621458778900433 14.267681932856034 6.401368605279971 0 0 0
3343 11 1 17.004629050782352 15.05366784558222 7.6428403993557845 0 0 0
3344 11 1 17.915012760236575 14.515822677241095 8.778802252610038 0 0 0
3345 11 1 18.296151237979167 15.505063421765627 9.866249950745857 0 0 0
3560 11 1 12.005824856111781 14.207815643823135 0.1948112942010094 0 0 0
3561 11 1 12.508580073702412 15.025836649793272 1.394686267476909 0 0 0
3562 11 1 13.605666034370698 14.28113821132596 2.192282257863855 0 0 0
3563 24 1 17.308849189841727 16.983287540837704 1.721545142319788 0 0 0
3564 24 1 18.449759258439865 17.618835565022952 2.4930129226978224 0 0 0
8284 1 1 6.715605124085951 25.455636585835002 14.651613416574493 0 0 0
2489 15 1 11.22191027374059 1.4192895628961628 0.12473347776251635 0 0 1
3787 25 1 14.026247846689513 19.751583521514835 3.8919649467635122 0 0 0
3788 25 1 15.259255954972586 19.294510100644228 4.697643188864941 0 0 0
3789 25 1 15.446427570454574 19.812810390663685 6.100183325008576 0 0 0
3790 25 1 16.826986822655382 19.4335646704792 6.714920313485004 0 0 0
3791 25 1 16.94763937464948 19.648315567321383 8.258698330602682 0 0 0
3792 25 1 18.355541184761854 19.464938942834827 8.90721856455046 0 0 0
3793 25 1 18.393241563411472 19.516886326001888 10.452306054376393 0 0 0
3821 25 1 12.397290462007792 18.945908626894475 0.43101625439691527 0 0 0
3822 25 1 12.491740163984737 19.44631690064865 1.882471866832315 0 0 0
3823 25 1 13.88545428497537 19.189127656534552 2.500576617298469 0 0 0
3881 28 1 17.104438433145734 21.655568639571886 1.7946716626967278 0 0 0
740 8 1 18.709452929556395 7.905579010107915 19.30371483591922 0 0 0
7994 62 1 12.121432051606007 21.50434587400654 23.42309140010035 0 0 0
4104 28 1 17.123314809444388 21.84340387044716 0.30360889045239386 0 0 0
4105 14 1 13.877947024168524 23.873565943374338 4.085557855096532 0 0 0
4106 14 1 15.241831446343861 23.716401865774166 4.6446793568041285 0 0 0
4107 14 1 15.357100737021472 24.099485345906082 6.140754578487498 0 0 0
4108 14 1 16.63520020948308 23.605702817833944 6.837199838025628 0 0 0
4109 14 1 16.648309582764362 23.891730029730997 8.310007196196363 0 0 0
4110 14 1 17.88384755310334 23.517373652955328 9.054478760525711 0 0 0
4111 14 1 17.928814775620946 24.01524099719473 10.489356678441089 0 0 0
4326 14 1 12.202820991825384 23.12490037311275 0.5295199156482825 0 0 0
4327 14 1 12.509270338178686 23.825401209333318 1.8431647399788496 0 0 0
4328 14 1 13.788509676725734 23.358783198354494 2.663199782639738 0 0 0
4329 18 1 17.251692192707697 25.714174070824335 2.0200174242125364 0 0 0
6862 54 1 0.9481668674060704 10.195400453596337 12.711046880743323 0 0 0
8282 1 1 5.497356886406571 25.31821170925269 12.488139839409806 0 0 0
4365 18 1 17.09526453506299 26.259686760003692 0.6179889658451466 0 0 0
4511 31 1 1.847551597769395 3.5850141174618018 19.472923117457952 0 0 0
4512 31 1 1.8942621880579171 3.5811767727659594 20.990308030213487 0 0 0
4513 31 1 3.2299052067836795 3.6688931931518813 21.710217664963533 0 0 0
4514 31 1 3.1324393484661273 3.6430613337762123 23.24315737305574 0 0 0
8281 1 1 5.381596662602676 25.70170287024399 11.066565109926351 0 0 0
4659 54 1 1.4445029849676274 7.970435479816981 20.034426539105336 0 0 0
4660 54 1 1.7902727274791759 7.572989434515306 21.496277142001134 0 0 0
4661 54 1 2.8754039900939 8.367918890623455 22.244539303461906 0 0 0
5453 57 1 3.7261014392710883 21.133132321649327 23.511595513594255 0 0 0
1000 13 1 18.58823409507164 13.459074049867628 17.39182897952349 0 0 0
4814 46 1 1.7737059123820256 12.416899657571067 19.87587780861236 0 0 0
4815 46 1 1.6768670236975969 11.994203057686073 21.32469661940732 0 0 0
4816 46 1 2.8871445611290065 12.355457772878296 22.19315588044787 0 0 0
4817 46 1 2.7540866258305248 12.11228081395309 23.666629477281464 0 0 0
8280 1 1 4.142353936874036 25.133949739798407 10.376804680487085 0 0 0
5142 39 1 1.6628872755841977 16.42910096831669 19.754155909269826 0 0 0
5143 39 1 1.4744406291610468 16.325637294604572 21.243709462207992 0 0 0
5144 39 1 2.816606271124131 16.58765054692017 22.02377047936312 0 0 0
5145 39 1 2.924879080632033 16.1489671596485 23.480138422021586 0 0 0
8204 63 1 3.416895432760096 22.65201977574047 15.35812316946584 0 0 0
5449 57 1 0.8396501426027673 21.050420605062055 19.351388520891344 0 0 0
5450 57 1 1.4292717217396294 20.24951762758004 20.495050110747123 0 0 0
5451 57 1 2.2874650528659046 21.144588799309105 21.472093752393068 0 0 0
5452 57 1 2.582865848375148 20.435621625950862 22.766937716496653 0 0 0
8290 1 1 10.223066851983427 25.61950154078246 21.344200625742253 0 0 0
5894 44 1 1.2264958490076292 25.198493099703523 19.689896363742267 0 0 0
5895 44 1 1.4148967463786384 25.475592680241174 21.187698444411474 0 0 0
5896 44 1 2.7460480609654834 25.185884204768886 21.932016188844663 0 0 0
5897 44 1 2.8026652462316815 25.75994715141003 23.334504889240876 0 0 0
7993 62 1 12.315287211766476 21.653666470280434 21.91731371728637 0 0 0
1896 11 1 18.383724772182877 21.801132250686646 17.637990860574725 0 0 0
5966 46 1 1.3782148285528746 1.361721762994121 12.387849829630232 0 0 0
5967 46 1 2.3609921497000363 0.626536895748705 13.300469135582379 0 0 0
5968 46 1 2.6748355485379056 1.4965724237366496 14.507407890230123 0 0 0
5969 46 1 3.3371731033945613 0.7198937485054733 15.637563982134036 0 0 0
5970 46 1 3.9026211493069014 1.6305179474221063 16.700657489675923 0 0 0
5971 46 1 4.287248178718674 0.9128645512538415 17.96098693404093 0 0 0
5972 46 1 5.061357267248839 1.8476570346918684 18.968231517602685 0 0 0
5973 46 1 5.470864547663283 1.176121050401086 20.237647423428882 0 0 0
5974 46 1 6.400895267257451 1.9060638243566956 21.22144536248184 0 0 0
5975 46 1 6.9969778246851 1.0070508154646776 22.312709212943755 0 0 0
5976 46 1 8.000532375425674 1.6541704355814644 23.206012466211234 0 0 0
7992 62 1 10.971106427724617 21.821043353683017 21.29644683169665 0 0 0
6185 48 1 0.6751601673762075 4.008021185133766 4.211584198547926 0 0 0
6186 48 1 1.31875886275351 3.127103007296025 5.319767789702242 0 0 0
6187 48 1 2.0309869752057037 3.9708124557632423 6.388771239574231 0 0 0
6188 48 1 2.634521682531813 3.057470926061603 7.471034340809909 0 0 0
6189 48 1 3.391274981262739 3.8182711286669218 8.533378400362592 0 0 0
6190 48 1 4.005995760133458 2.97432563097827 9.699641765910735 0 0 0
6191 48 1 4.772645900171406 3.8822461473889014 10.624631703894119 0 0 0
6192 48 1 5.151890072330305 3.197737594125736 11.93702789059788 0 0 0
6193 48 1 5.7282968910886 4.13533900780809 13.009702449114625 0 0 0
6194 48 1 6.007785063138465 3.4257263476624553 14.323758044618252 0 0 0
6195 48 1 6.885829210678224 4.169463516235954 15.326476225857288 0 0 0
6196 48 1 7.417833417442484 3.281945747759785 16.393072498480898 0 0 0
6197 48 1 8.347850092355205 4.019419492585593 17.3557647470268 0 0 0
6198 48 1 8.958765715689 3.174616471625642 18.505317132495243 0 0 0
6199 48 1 9.86853560165132 3.8800743328477196 19.490182688084424 0 0 0
6200 48 1 10.381604343140104 3.0100870273995244 20.609638048434338 0 0 0
6201 48 1 11.430084323926243 3.6867083920795873 21.497166262960114 0 0 0
6202 48 1 11.802298284909897 2.9874977689951945 22.770847548173837 0 0 0
8279 1 1 3.925236273354444 25.62189557826011 8.949309088209423 0 0 0
7528 57 1 0.4840922654656423 16.852835955919378 3.855678157186367 1 0 0
6414 31 1 1.5181798089389487 6.2890466629992625 12.846209666826661 0 0 0
6415 31 1 2.1679265010307915 5.513921487610039 13.928868966372335 0 0 0
6416 31 1 2.7416740775739203 6.290388142171731 15.123738615567474 0 0 0
6417 31 1 3.4385229795815766 5.479288786973524 16.22642571408312 0 0 0
6418 31 1 4.073978007083555 6.38319003708332 17.300534172368287 0 0 0
6419 31 1 4.760291324834094 5.710378225065908 18.51232785523552 0 0 0
6420 31 1 5.41008066796007 6.615525315400056 19.592679919012514 0 0 0
6421 31 1 6.191258986054241 5.832157992727094 20.65305952527175 0 0 0
6422 31 1 6.918765400534202 6.560610003392768 21.801656775661655 0 0 0
6423 31 1 7.788670361716743 5.691785416279316 22.664564615299934 0 0 0
5965 46 1 0.8235877097942662 0.5069610654159643 11.245363283335456 0 0 0
8206 63 1 4.694923021025869 22.72528462264365 17.574039422001665 0 0 0
6633 34 1 1.126485205317004 8.334704322047173 4.415490854336936 0 0 0
6634 34 1 1.574345845083477 7.553936493268996 5.728847604709458 0 0 0
6635 34 1 2.5439739648881496 8.251495611319585 6.595668435689764 0 0 0
6636 34 1 2.992881542147398 7.614155857590379 7.90305533881858 0 0 0
6637 34 1 4.107520319205704 8.252323705995163 8.715032754614226 0 0 0
6638 34 1 4.2302975129973355 7.648600806542125 10.098229746056088 0 0 0
6639 34 1 5.34164205846653 8.208343119768832 10.945244025299415 0 0 0
6640 34 1 5.480254153656884 7.766885064600301 12.45898187791859 0 0 0
6641 34 1 6.81169072694042 8.047130444378553 13.161256350182349 0 0 0