LAMMPS data file via write_data, version 29 Oct 2020, timestep = 32000000

10752 atoms
2 atom types
10752 bonds
3 bond types
10752 angles
3 angle types
10752 dihedrals
3 dihedral types

-1.4019591925125496e-01 3.1008115919238300e+01 xlo xhi
-1.2113307625790526e-01 2.6791853076229280e+01 ylo yhi
 4.5918965657682804e+00 2.7840746343346257e+02 zlo zhi

Masses

1 14
2 15

Pair Coeffs # lj/cut/omp

1 0.0914 3.95
2 0.1947 3.75

Bond Coeffs # harmonic/omp

1 449.5 1.53
2 449.5 1.53
3 449.5 1.53

Angle Coeffs # harmonic/omp

1 62.0967 114
2 62.0967 114
3 62.0967 114

Dihedral Coeffs # opls/omp

1 1.411 -0.271 3.145 0
2 1.411 -0.271 3.145 0
3 1.411 -0.271 3.145 0

Atoms # molecular

1             1             1       25.9957       26.6974       275.772
2             1             1       25.3104       0.73378       276.731
3             1             1       25.0178       26.7382       277.906
4            1            1      24.3495     0.635625      5.23176
5            1            1      24.0421    -0.112867      6.51133
6            1            1      23.5915     0.679511      7.75757
7            1            1      23.5625      26.7226      9.05809
8            1            1      23.0642     0.620832      10.2517
9            1            1      22.9137    -0.110584      11.5636
10            1            1      22.1384     0.698926      12.5824
11            1            1      22.1366   -0.0334594      13.9047
12            1            1       21.236       0.5864      14.9431
13            1            1      21.1891      26.6268      16.1133
14            1            1      20.6154      0.50537      17.2988
15            1            1       20.551      26.7779      18.7012
16            1            1      19.7801     0.637648      19.8071
17            1            1      20.0223     0.132921      21.2298
18            1            1      19.2291     0.857469      22.3405
19            1            1      19.2861    0.0544028      23.6719
20            1            1      18.4405     0.469028      24.8554
21            1            1      18.4897      26.6281      26.1782
22            1            1      17.7199     0.532667      27.1913
23            1            1      17.7635   -0.0681108      28.5794
24            1            1      16.9986       0.8722      29.6058
25            1            1      17.0008     0.295954       30.974
26            1            1       16.256      1.01614      32.1217
27            1            1      16.3181     0.201168       33.434
28            1            1      15.7094     0.977086      34.6258
29            1            1      15.6825     0.144612      35.9297
30            1            1      14.9071     0.742167      37.0606
31            1            1      15.2483     0.141536      38.4704
32            1            1       14.523     0.957075      39.5252
33            1            1      14.6737     0.393882      40.9135
34            1            1      14.1526      1.14606      42.1837
35            1            1      14.2464     0.318645      43.4666
36            1            1      13.8571      1.25288      44.6634
37            1            1      13.5566     0.402816      45.9065
38            1            1      13.3443      1.28762      47.1011
39            1            1      13.2534     0.375097      48.3264
40            1            1      13.0757      1.30049       49.548
41            1            1      12.9696     0.561272      50.9152
42            1            1      13.6966      1.26728      51.9993
43            1            1      13.7183     0.562347      53.3528
44            1            1       14.439      1.39398      54.3631
45            1            1      14.3932     0.863575      55.7892
46            1            1      14.9074      1.83437       56.823
47            1            1      15.0875      1.20563      58.2448
48            1            1      15.4965      2.09765       59.442
49            1            1      15.8935      1.26791      60.6491
50            1            1      15.9854      2.13533      61.8887
51            1            1      16.1376      1.39796      63.2726
52            1            1      16.8037      2.09393      64.4343
53            1            1      16.9023      1.25294       65.683
54            1            1      17.3516      2.09526       66.901
55            1            1      17.4938      1.27883      68.1637
56            1            1      18.1804      2.17206       69.188
57            1            1      18.2371      1.41086      70.5123
58            1            1      18.8884      2.16435      71.6416
59            1            1      18.9929      1.41757      72.9831
60            1            1      19.8064       2.0896      73.9754
61            1            1      19.5787      1.61975      75.4449
62            1            1      20.7151      1.95914      76.3536
63            1            1      20.4408      1.69905      77.8428
64            1            1       21.598      1.68459      78.8004
65            1            1      21.2328      1.52409      80.2634
66            1            1      22.4138      1.72023      81.1824
67            1            1      22.1838      1.25149      82.6016
68            1            1      23.2834      1.46863      83.6374
69            1            1      22.8062      1.41496      85.0882
70            1            1      23.8988       1.5923       86.096
71            1            1      23.4886      1.26248      87.5272
72            1            1      24.5379      1.74345      88.4709
73            1            1      24.2471      1.32617      89.9388
74            1            1      25.3354       1.7684       90.959
75            1            1      25.0735      1.03977      92.2969
76            1            1      25.8691      1.67078      93.4401
77            1            1      25.8251     0.835475      94.6953
78            1            1       26.389       1.6364      95.8381
79            1            1      26.5227     0.959763      97.1792
80            1            1      27.2253      1.80455      98.3118
81            1            1      27.2755      1.15451      99.7704
82             1             1       27.9092        1.8861       100.937
83             1             1       27.8857       1.07797       102.269
84             1             1        28.525       1.90363       103.404
85             1             1       28.9647       1.06401       104.618
86             1             1       29.4472       1.76049       105.819
87             1             1       30.0557      0.836841       106.826
88             1             1       30.1944       1.47313       108.179
89             1             1       30.7733      0.691655       109.288
90             1             1       30.7907       1.51361       110.592
91             1             1      0.243266        0.7727       111.803
92             1             1       0.25498       1.54029       113.126
93             1             1       1.06423      0.889627       114.261
94             1             1       0.98257       1.69458       115.581
95             1             1       1.50022      0.883592       116.723
96             1             1       1.46063       1.55442       118.085
97             1             1       2.51992      0.896318       119.017
98             1             1       2.48154       1.45505       120.411
99             1             1        3.2829      0.631837       121.481
100             1             1         3.554       1.48428       122.725
101             1             1       4.09574      0.865007       124.034
102             1             1       4.72356       1.79742        125.04
103             1             1       4.85193      0.990842        126.29
104             1             1       5.24247       1.78097       127.562
105             1             1       5.79546      0.901325        128.64
106             1             1       5.77951       1.55006        130.06
107             1             1       6.53295      0.790373       131.121
108             1             1       6.17153       1.29354       132.528
109             1             1       6.85363      0.458272        133.59
110             1             1       6.71399       1.13619       134.923
111             1             1       7.86812      0.723593       135.929
112             1             1       7.69616       1.47352       137.269
113             1             1       8.59916      0.899429       138.407
114             1             1        8.4082       1.69529       139.708
115             1             1       9.33777       1.19898       140.851
116             1             1       8.98382       1.59818       142.284
117             1             1       9.95665       1.10872       143.331
118             1             1       9.80673        1.7126       144.766
119             1             1       10.8185       1.23803       145.793
120             1             1       10.5561       1.67432       147.254
121             1             1       11.4851      0.937591        148.25
122             1             1       11.4016       1.42769       149.653
123             1             1       12.3293      0.752264       150.644
124             1             1       12.1591       1.35437       152.036
125             1             1       13.2836      0.894425       152.999
126             1             1       12.9453       1.37228       154.398
127             1             1       13.6769      0.743791       155.587
128             1             1       13.6096       1.60888       156.793
129             1             1       14.4888      0.937538       157.865
130             1             1       14.6376       1.77087       159.178
131             1             1       15.4515       1.00244        160.22
132             1             1       15.0233       1.46297       161.596
133             1             1       15.5317      0.662799       162.791
134             1             1       15.5581       1.42212       164.153
135             1             1       16.3886      0.648938       165.211
136             1             1       16.3707        1.3073       166.608
137             1             1       17.4467      0.714472       167.458
138             1             1       17.7025       1.42471       168.758
139             1             1        18.352       0.57758       169.886
140             1             1       18.3763       1.28245       171.225
141             1             1       19.1567      0.525019       172.279
142             1             1       19.0092       1.11559       173.687
143             1             1        19.884      0.565251       174.875
144             1             1       19.5171      0.977275        176.31
145             1             1       20.6245       0.76821       177.331
146             1             1       20.0464       1.01179       178.723
147             1             1       21.0064      0.990552       179.946
148             1             1       20.2711       1.21666       181.309
149             1             1       21.0705      0.888114       182.604
150             1             1       20.2886       1.10278       183.899
151             1             1       21.0868      0.662428       185.098
152             1             1       20.6213       1.36435       186.357
153             1             1       21.1019      0.627837       187.619
154             1             1       20.2258       1.15282       188.781
155             1             1       20.6504      0.574957       190.153
156             1             1       19.7215       1.10957       191.297
157             1             1       19.8278      0.522868       192.685
158             1             1       19.1112       1.17528       193.835
159             1             1       19.0719      0.474365       195.211
160             1             1       18.4817       1.37625       196.273
161             1             1        18.461      0.617443       197.642
162             1             1        17.806       1.51319       198.684
163             1             1       17.7677      0.894086       200.054
164             1             1       17.0611       1.67892       201.085
165             1             1       16.8651      0.768114       202.319
166             1             1       16.4865       1.55786       203.587
167             1             1       15.9912      0.616095       204.676
168             1             1       15.7362       1.47999       205.988
169             1             1       15.3748      0.588426       207.209
170             1             1       14.9152       1.33001       208.507
171             1             1       14.6732      0.502971       209.774
172             1             1       14.2875       1.44034           211
173             1             1        13.817      0.683571       212.236
174             1             1       13.5181       1.47135        213.54
175             1             1       12.8397      0.691254       214.663
176             1             1        12.757       1.59137       215.846
177             1             1       12.0608      0.766278        216.95
178             1             1       11.8904       1.52881       218.249
179             1             1       11.2639      0.772216       219.418
180             1             1       11.2583        1.5093       220.773
181             1             1       10.7764       0.67866       221.944
182             1             1       10.3675       1.53457       223.177
183             1             1       10.2098      0.644668       224.454
184             1             1       9.61245       1.35324       225.621
185             1             1       9.26484      0.456619        226.76
186             1             1       8.61429         1.212       227.926
187             1             1       8.56641      0.506175         229.2
188             1             1       7.74766       1.14381       230.368
189             1             1       7.90418      0.377758       231.657
190             1             1       7.35415       1.20721       232.792
191             1             1       7.23916      0.432992       234.061
192             1             1       6.93217       1.22103       235.341
193             1             1        6.7638      0.290668       236.527
194             1             1       6.17457      0.879286       237.793
195             1             1       6.24325     0.0686636       239.072
196             1             1       5.53792      0.895397       240.089
197             1             1       5.72564      0.429051       241.497
198             1             1       5.12314       1.22327       242.638
199             1             1       5.24627      0.532171       244.021
200             1             1       4.24254       1.07549       245.044
201             1             1       4.37242      0.509389       246.446
202             1             1       3.08255      0.756894       247.311
203             1             1       3.16363        0.1323       248.721
204             1             1       2.11622      0.507691       249.755
205             1             1       2.48994      0.601387        251.21
206             1             1       1.33464      0.708738       252.173
207             1             1       1.72497      0.528926       253.633
208             1             1      0.669471      0.959469       254.677
209             1             1      0.982806      0.676774       256.144
210             1             1   -0.00875296       1.21147       257.138
211             1             1      0.137741      0.595674       258.579
212             1             1        30.343       1.13992       259.671
213             1             1       30.5361      0.518387       261.079
214             1             1       29.5312      0.991132       262.131
215             1             1        29.752      0.378548        263.51
216             1             1       28.9786       1.23241       264.542
217             1             1       28.5728      0.516346       265.814
218             1             1       28.0861       1.21481       267.124
219             1             1       27.8417      0.330994       268.333
220             1             1       27.4024      0.931607       269.664
221             1             1       27.1849       26.7551       270.695
222             1             1       26.6107       0.62832       271.908
223             1             1       26.2969       26.5595       273.044
224             1             1       26.0843      0.464512       274.376
225             2             1       30.0587       2.84262        275.32
226             2             1       29.2938       2.06429       276.456
227             2             1       29.4503       2.75672       277.803
228             2             1       28.3468       2.23202        4.9595
229             2             1       28.4587        2.8507       6.31656
230             2             1       27.5227       2.23439       7.33786
231             2             1       27.6584        2.7711       8.71134
232             2             1       26.6218       2.14701       9.66638
233             2             1       26.7825       2.48505        11.164
234             2             1       25.7366       2.04215       12.1093
235             2             1       26.0913       2.41254       13.4996
236             2             1       25.2552       1.65852       14.6245
237             2             1       25.3157       2.33823       15.9991
238             2             1       24.6156       1.53598       17.1122
239             2             1       24.5948        2.3563       18.3862
240             2             1       23.8199       1.62077       19.5047
241             2             1       23.9728       2.24315       20.8612
242             2             1       23.0207       1.74489        21.951
243             2             1       23.0193       2.63342       23.2053
244             2             1       22.4519       2.03293       24.4823
245             2             1       22.2204       3.10516       25.5338
246             2             1       21.6809       2.48978       26.7654
247             2             1       21.4324       3.33919        27.976
248             2             1       20.9891       2.39555       29.1783
249             2             1       20.9228       3.25878       30.4149
250             2             1       20.2859       2.60879       31.6159
251             2             1       20.3084       3.33552       32.9408
252             2             1       19.5818       2.76776       34.1707
253             2             1       19.7548       3.54266       35.4981
254             2             1       19.0469       2.76701       36.6201
255             2             1       19.2511       3.33286       38.0194
256             2             1       18.4963       2.66846       39.2189
257             2             1       18.5374        3.5061        40.505
258             2             1       18.1462       2.84519       41.8639
259             2             1       18.4473       3.61166       43.1492
260             2             1       17.7613       3.06567        44.398
261             2             1        18.122       3.81891       45.7094
262             2             1        17.432       3.17642       46.9664
263             2             1       17.7252       3.91296       48.2836
264             2             1       17.4746        3.1286       49.5672
265             2             1       17.7537       3.92016       50.8753
266             2             1       17.7235       3.09462       52.1765
267             2             1       18.3484       3.93212       53.3192
268             2             1       18.3672       3.33263       54.7358
269             2             1       19.0779       4.17817       55.8132
270             2             1       18.9189       3.59125       57.2363
271             2             1       19.7027       4.34811       58.3126
272             2             1       19.2891       3.74663       59.5998
273             2             1       19.9738       4.41801        60.809
274             2             1       19.6769       3.71453       62.1043
275             2             1       20.6006       4.23386       63.1924
276             2             1        20.459       3.53353       64.5536
277             2             1       21.4011       4.10854       65.5868
278             2             1       20.9474       3.70195       67.0202
279             2             1       21.6781       4.40422       68.2157
280             2             1       21.7546       3.59291       69.4638
281             2             1       22.1242       4.43308       70.6548
282             2             1        22.744       3.66103       71.8384
283             2             1       22.6258        4.3257       73.2141
284             2             1       23.4165       3.62922       74.2925
285             2             1       23.7295       4.49176       75.5546
286             2             1       24.3228       3.55649       76.6548
287             2             1       24.4404       4.33682       77.9907
288             2             1       25.1337       3.47063        79.044
289             2             1       25.3909       4.21764       80.3289
290             2             1       25.9219       3.44856       81.5489
291             2             1       26.0667       4.37856       82.7728
292             2             1       26.5669       3.63019       84.0078
293             2             1       27.0116       4.45617       85.1356
294             2             1       27.3047       3.56281       86.2761
295             2             1       27.7252        4.2837       87.5343
296             2             1       28.0562        3.3608       88.7425
297             2             1       28.4088       4.21862       89.9104
298             2             1       28.9101       3.30073       91.0403
299             2             1        29.158       4.11641       92.2828
300             2             1       29.5009       3.28679       93.5136
301             2             1       30.2418       4.02872       94.6419
302             2             1       30.4565        3.2598       95.9437
303             2             1    -0.0532295       4.16424       97.0546
304             2             1    -0.0878507       3.47513       98.4113
305             2             1      0.481156       4.32664       99.5784
306             2             1      0.351211        3.5295       100.864
307             2             1       1.14715       4.15532       102.047
308             2             1       1.21616       3.22586       103.267
309             2             1       2.00979       3.83872       104.379
310             2             1       2.01515       3.01283       105.656
311             2             1       2.56873       3.84634       106.877
312             2             1       2.52126        3.0418       108.242
313             2             1       3.42711        3.6298       109.286
314             2             1       3.24519       2.90604       110.646
315             2             1       4.32425       3.29712       111.709
316             2             1       4.16952       2.68025       113.153
317             2             1       4.88192       3.53952       114.156
318             2             1       4.90122       2.93407       115.598
319             2             1       5.64592       3.81401       116.538
320             2             1       5.66769       3.12868       117.868
321             2             1       6.45513       3.83903       118.975
322             2             1       6.30872       3.17193        120.35
323             2             1       7.16619       3.72338       121.451
324             2             1       7.34558       2.84948       122.683
325             2             1       7.93299       3.83212        123.74
326             2             1       8.15569       3.00164       125.065
327             2             1         8.716       3.86146       126.256
328             2             1       8.95017       3.02722       127.505
329             2             1       9.42413       3.82919       128.746
330             2             1       9.47326       2.97351        130.03
331             2             1        9.8741       3.72964       131.241
332             2             1       9.87177       2.96515       132.581
333             2             1          10.5       3.69693       133.725
334             2             1       10.6142       2.89885       134.972
335             2             1       11.3264       3.66186        136.11
336             2             1       11.3845       3.03019       137.507
337             2             1       12.0951         3.831       138.558
338             2             1       12.3344       3.07262       139.869
339             2             1       13.0731       3.90742       140.977
340             2             1       13.3851       2.91147       142.189
341             2             1         14.11       3.61933       143.425
342             2             1       14.2608       2.77463       144.682
343             2             1       14.6135       3.69013       145.922
344             2             1       14.6808       2.86414       147.229
345             2             1       15.2106       3.54398       148.498
346             2             1       15.3285       2.74718       149.813
347             2             1       16.1023       3.57076       150.831
348             2             1         16.38       2.84781       152.154
349             2             1       16.9867       3.77222       153.262
350             2             1       17.0249       2.90827       154.609
351             2             1       17.5539       3.63374       155.897
352             2             1       17.8143       2.69331        157.05
353             2             1        18.328       3.52608        158.25
354             2             1       18.7597       2.61459       159.343
355             2             1       19.3561       3.35666        160.55
356             2             1       19.4104         2.639       161.886
357             2             1        20.278       3.39749       162.883
358             2             1       19.9699       2.87573       164.282
359             2             1       20.7632       3.63043       165.351
360             2             1       20.8167       2.91745       166.641
361             2             1       21.5306       3.75994       167.677
362             2             1       21.5275        2.8685       168.919
363             2             1       22.2187       3.64821       170.021
364             2             1       22.0997       2.90388       171.294
365             2             1       23.2098       3.35743        172.24
366             2             1       22.6749       2.98732       173.617
367             2             1       23.7681       3.23725       174.706
368             2             1       23.1996       3.14077       176.102
369             2             1       24.2807       3.21703       177.223
370             2             1       23.6246       3.05976       178.618
371             2             1       24.6539       3.06983       179.752
372             2             1       23.9443       2.86851       181.123
373             2             1       24.7911       3.25369       182.388
374             2             1       24.2053       2.92464       183.771
375             2             1       25.0662       3.39055        184.94
376             2             1       24.5022       3.10214       186.308
377             2             1       25.0592       3.68747        187.66
378             2             1       24.1349       3.35692       188.762
379             2             1       24.4949       3.78109       190.156
380             2             1       23.5695       3.29015       191.292
381             2             1       23.9155       3.68334       192.703
382             2             1       22.8981       3.20195       193.748
383             2             1        23.134       3.51335       195.201
384             2             1       21.9871        3.0846       196.168
385             2             1       22.3385       3.58029       197.593
386             2             1       21.3315       3.16392        198.65
387             2             1       21.8911       3.75876       200.015
388             2             1        21.056       3.10136       201.056
389             2             1        21.202       3.65662       202.412
390             2             1       20.2938       2.92915       203.466
391             2             1       20.2397       3.54767       204.842
392             2             1        19.194        2.8692       205.721
393             2             1       19.3974       3.10019       207.229
394             2             1       18.4276       2.60825       208.332
395             2             1       18.8881       3.02862       209.678
396             2             1       17.7483       3.35589       210.535
397             2             1       18.1217       3.52935       211.986
398             2             1       17.1869        2.9383       213.005
399             2             1       17.5086        3.2818       214.473
400             2             1       16.3189       3.08427       215.356
401             2             1       16.4701       3.64078       216.762
402             2             1       15.5163       3.12413       217.843