LAMMPS data file via write_data, version 23 Jun 2022, timestep = 11112117

8487 atoms
2 atom types
8471 bonds
3 bond types
8455 angles
3 angle types
8439 dihedrals
3 dihedral types

0 36.89775039 xlo xhi
0 26.67072 ylo yhi
21.020944949706816 215.73065945029487 zlo zhi
0 6.125991577174158 0 xy xz yz

Masses

1 14
2 15

Pair Coeffs # lj/cut/omp

1 0.0914 3.95
2 0.1947 3.75

Bond Coeffs # harmonic/omp

1 449.5 1.53
2 449.5 1.53
3 449.5 1.53

Angle Coeffs # harmonic/omp

1 62.0967 114
2 62.0967 114
3 62.0967 114

Dihedral Coeffs # opls/omp

1 1.411 -0.271 3.145 0
2 1.411 -0.271 3.145 0
3 1.411 -0.271 3.145 0

Atoms # molecular

1 55 1 4.946395797319423 0.19152820365523662 25.510422725751408 0 0 0
2 55 1 6.319080957435141 26.594607199006443 26.131285808267076 0 -1 0
3 55 1 6.393018239103679 26.543226354974436 27.62993484980386 0 -1 0
4 55 1 7.78657445877451 26.283609052420644 28.224611844799682 0 -1 0
5 55 1 7.9624831180396525 26.072912805277344 29.70580946839837 0 -1 0
7664 58 1 1.9863727584937263 15.695324667521584 29.79029978436124 0 0 0
1725 13 1 8.461332054964302 19.560279917854587 24.06777920350823 0 0 0
224 55 1 4.904694357602079 0.4120615282514507 23.9580065337431 0 0 0
967 50 1 3.8684147721853774 8.449252990077204 23.656945899718256 0 0 1
1414 47 1 4.20295331180048 13.012184552719052 25.422726038703008 0 0 1
1202 9 1 13.171472935589735 13.778524700296567 37.74535436072375 0 0 0
4288 32 1 16.27151388376705 23.859457089125463 22.013537072887186 0 0 0
7667 58 1 4.951546674588888 15.680282980314237 32.439340129081856 0 0 0
4540 5 1 17.262374382806623 6.870115252127527 36.93193923914022 0 0 0
2667 20 1 15.681236380551962 6.825304645007701 21.108366808265004 0 0 0
1416 47 1 5.698144966326039 13.341450217637504 27.476864664360626 0 0 1
1194 16 1 10.164513232828332 10.70405267294049 26.716952241107045 0 0 1
3611 56 1 14.57894692417095 17.681807718386963 26.171210524067966 0 0 0
2942 42 1 16.756706284221888 11.645541523081782 23.10634288138786 0 0 0
3167 24 1 16.165103023938507 13.35056748265201 28.25104620403626 0 0 0
2631 20 1 16.945859134312133 6.366167926948427 21.867119088851393 0 0 0
6406 48 1 1.5259366654698283 26.333522726927498 34.423407405905664 0 -1 0
7211 56 1 8.174060946464454 11.446579772669041 37.457460235203456 0 0 0
2905 22 1 13.22487707545178 8.463074253927235 23.565125388933303 1 0 1
1410 47 1 1.3000819857300512 13.374095528304233 21.170715062483445 1 0 1
227 3 1 8.355370074481325 1.9443572647220544 23.57762164456202 0 0 0
228 3 1 9.611732703507423 2.3623414840614623 24.414531099561685 0 0 0
229 3 1 10.102645438480819 1.4776346657489805 25.53891711700463 0 0 0
230 3 1 11.146728989579044 2.344651475867636 26.344363400754283 0 0 0
231 3 1 11.56487344023764 1.5405522363160984 27.55673244811469 0 0 0
232 3 1 12.540233820208606 2.3286279721951173 28.459460643971628 0 0 0
233 3 1 12.629313209667572 1.8487270722332876 29.88164355395407 0 0 0
2240 15 1 7.107731815891329 24.04008579150178 21.921846953850494 1 0 1
649 52 1 5.504765859086847 4.447317127270131 24.971663602244497 1 0 1
1976 64 1 7.947824972510763 22.48617885226792 30.130481774604394 0 0 0
652 52 1 6.9334027766503565 4.263519885591145 28.731924263436593 1 0 1
1684 11 1 2.6392766456278163 18.085723586953357 22.3721406609183 0 0 0
1417 9 1 7.146047216185834 13.006260251135515 28.052207374720403 0 0 0
7204 56 1 3.6805767341512583 10.911452049533379 29.9957545359445 1 0 0
7203 56 1 2.6846663684206433 11.555888548276119 29.009095454477073 1 0 0
2906 22 1 13.501608895742974 9.12442598724503 24.93912242116998 1 0 1
6631 12 1 10.000746801595877 2.297034155528259 39.47414374311252 0 0 0
1722 13 1 5.831817817808986 19.961445600832654 21.233430242047294 0 0 0
656 52 1 9.983979590357828 4.4127064689911 32.97496028133506 1 0 1
970 60 1 5.229471280404586 9.10711711667585 27.29185295287658 0 0 0
8184 62 1 2.658362467367699 22.539211585807898 35.98180902186619 0 0 0
6946 49 1 8.648567919695745 6.8413284380356 37.71759859814932 0 0 0
7445 26 1 3.8379628449145144 13.758319304933996 37.632666067251954 0 0 0
843 51 1 1.2399637085979212 4.892740937939269 32.981870768134996 0 0 0
2249 15 1 14.303421080161362 24.36454207318703 31.130982925884226 0 0 1
2944 42 1 18.338423648256484 11.634608718727751 25.148651266720254 0 0 0
3602 29 1 18.24432379471456 15.95968750691006 25.555315047646772 0 0 1
7974 60 1 0.538716142824394 19.88931505437624 26.10910507904434 0 0 0
966 50 1 2.7810767439689528 9.049715537485996 22.778791140011773 0 0 1
241 3 1 18.113842000107415 2.6787878291187 38.251304125136954 0 0 0
4255 30 1 12.98121038475477 21.698238500666776 24.10655901418594 1 0 1
2851 51 1 2.103498066038027 4.655446434520363 35.377440826266586 0 0 0
1734 13 1 14.807459596658088 20.634807418956857 33.81265684715794 0 0 0
6620 12 1 2.0548611354994253 1.871650744832319 27.84161197127188 0 0 0
2405 43 1 18.032819518640395 2.519319510530425 22.41549638139551 0 0 1
1412 47 1 2.7141651261431354 13.06963112924452 23.36866897881631 1 0 1
2255 3 1 17.910864302387527 25.34972000834704 37.73403922714648 0 0 0
1413 47 1 4.1435287887452175 12.943137884129753 23.910979245983157 0 0 1
1438 9 1 17.79727787318971 15.460215690528532 36.82845349022638 0 0 0
7976 60 1 1.8879343743269918 20.09811406995409 28.36723138098514 0 0 0
1652 11 1 6.404319423181867 17.278961533269616 27.558441290602907 0 0 0
6936 49 1 1.3009007918401192 6.4710894422245575 27.588872750953648 1 0 0
3165 24 1 14.736792919971295 13.351472767802994 26.13394256197153 0 0 0
4254 30 1 12.813319347605269 22.13071093050744 22.67883320760641 1 0 1
222 55 1 3.5838538656046044 0.47059652840200494 21.840356866926317 0 0 0
6938 49 1 3.0594289381626094 6.436293778311916 29.492001455275975 1 0 0
3162 24 1 11.987069165643778 13.640752495375276 23.343822198031276 0 0 0
1648 11 1 3.377468925539038 17.1257559786709 23.34769706886162 0 0 0
14 55 1 14.81140500583324 0.4523849387163821 38.96608192272234 0 0 0
3599 29 1 16.803982635743406 15.618598726134415 21.888298810790904 0 0 1
8434 64 1 1.9063194227563451 24.45940860001816 26.437578244319518 0 0 0
1736 13 1 16.076378284670778 20.54284688080782 36.12727889514762 0 0 0
2245 15 1 11.402235765529651 24.49655269521311 26.962379101049994 0 0 1
7674 58 1 9.75781329663943 15.623163361897472 39.91142603194093 0 0 0
660 52 1 13.162763749799065 4.284350291519667 36.999248002254035 1 0 1
2274 31 1 14.842050835049418 26.36362679250606 26.278671037184118 0 -1 0
1661 11 1 12.770269125697608 18.223748903570037 37.122767959801806 0 0 0
753 60 1 10.876240948964668 8.5611376429335 34.04193179709563 0 0 0
655 52 1 9.798346788943046 4.481321537620987 31.42559067391751 1 0 1
3168 24 1 16.476198965671113 14.141010489389327 29.545171146164996 0 0 0
755 60 1 12.637138935780609 8.498861009491785 35.9276337368897 0 0 0
6949 49 1 11.152944015888671 6.498207438615566 40.469525052027855 0 0 0
2412 4 1 13.188778096154165 4.387163305648343 22.18318480502286 0 0 0
980 7 1 17.364473618370077 10.618026336616222 37.16381904262026 0 0 0
1192 16 1 8.443067907761526 10.700888622740257 24.679601965575504 0 0 1
6985 54 1 0.7157233418768424 9.430003431087297 33.1830230000363 1 0 0
4253 30 1 11.50633827954239 21.648158436124103 22.04525075357463 1 0 1
2271 31 1 13.255137450048467 0.43577130362593164 22.792343156344977 0 0 0
1092 51 1 6.091142160165523 4.249745231203931 40.363503276113775 0 0 0
3835 28 1 18.303632629947927 20.27225341920172 24.67010356683113 0 0 0
7666 58 1 3.5191587338190673 15.803728294625248 31.85702359820766 0 0 0
3598 29 1 15.375500199823435 15.3701006352531 21.3258256861021 0 0 1
8181 62 1 0.7706952130520381 22.378384459922533 32.57205612482452 0 0 0
6628 12 1 8.342053968389541 2.937566065113476 36.0201377942824 0 0 0
1683 11 1 1.92821563756635 17.347546880122422 21.189169358810286 0 0 0
7443 26 1 2.1748326968532816 13.813220667068123 35.82000882347398 0 0 0
1656 11 1 9.142260330987568 17.484370287569384 31.774735331124752 0 0 0
6987 54 1 2.2157018456147815 9.166144747646927 35.17651795377879 0 0 0
4289 32 1 17.222182891463422 24.800586812702406 22.672100785670036 0 0 0
1649 11 1 3.988802862989817 17.872458743419205 24.591205508284165 0 0 0
976 7 1 14.828375001118827 10.727811056006612 32.75418584905387 0 0 0
647 52 1 3.827603886826424 4.320066350912445 23.060215538692017 1 0 1
8254 60 1 8.831441931160759 19.828076373577552 39.12977015283671 0 0 0
7980 60 1 4.965856345208186 19.968299470862025 32.409982383475395 0 0 0
1653 11 1 6.740547447642512 18.06856398231452 28.82395580518461 0 0 0
6630 12 1 9.877601528300112 2.8087767124845917 38.07042802594597 0 0 0
6405 48 1 0.882213047726957 0.5086696804692117 33.29482063129487 0 0 0
6410 48 1 4.168932847658581 26.58531003369043 38.73272922533776 0 -1 0
2256 3 1 18.487861962967653 24.64079984959164 38.94657911253772 0 0 0
971 60 1 6.366542017787324 8.371940007389616 27.99623317463602 0 0 0
754 60 1 11.515082782483422 9.315058765303124 35.21765247233915 0 0 0
3614 56 1 15.850089057312886 17.766268552076962 29.886811440844486 0 0 0
2417 4 1 15.924522650650124 4.421695865737057 28.088192505117824 0 0 0
6632 12 1 11.436295070083153 2.645548764805601 40.092706997429886 0 0 0
1196 7 1 11.56234860052853 11.168649825483993 28.91738470669044 0 0 0
1197 7 1 12.757572340695635 11.905958877699781 29.568940272778573 0 0 0
1198 7 1 13.317836278863457 11.115129939303902 30.768367322646206 0 0 0
1199 7 1 14.224836043489535 11.761893537469353 31.78122568272665 0 0 0
1200 9 1 11.498607483332457 13.853633255404716 35.90695163866264 0 0 0
221 55 1 2.276410699866048 0.15613268575026382 21.200503330451298 0 0 0
8185 62 1 4.0092548593789985 22.264876013530213 36.59666252387082 0 0 0
2907 22 1 14.696702260482395 8.601642488891313 25.722986205132845 1 0 1
7447 26 1 5.364700632014751 13.70676402632058 39.812860986814016 0 0 0
2910 22 1 16.362600852182815 9.131986832489988 29.172028226984654 1 0 1
8436 64 1 3.0778033711465973 24.635291043829895 28.849205869846855 0 0 0
2413 4 1 13.429110731563132 3.9843135371630987 23.63418173157954 0 0 0
1195 7 1 11.218544045980314 11.562410263005958 27.426772832341275 0 0 0
6945 49 1 8.617063987058877 6.725994820123028 36.22241360853957 0 0 0
657 52 1 11.401244060187457 4.65485667345386 33.53186457941253 1 0 1
2908 22 1 15.175822971886452 9.31895030296518 26.969278420552413 1 0 1
1663 11 1 14.280719514732205 18.22804939663885 39.201094935197816 0 0 0
7668 58 1 5.118858940455619 15.799193748758054 33.99167282271377 0 0 0
1737 13 1 17.012651995403345 19.83436785070964 36.973431295976184 0 0 0
7977 60 1 2.903465101201633 20.92842820812141 29.19995755573057 0 0 0
4260 30 1 16.991204776738083 22.805774797565512 28.972995736926638 0 0 1
1418 9 1 7.3554959257252195 13.509319108763062 29.494101825656777 0 0 0
1419 9 1 8.572981139893585 13.099444412056084 30.239360464564733 0 0 0
1420 9 1 8.624021762724317 13.690927556857055 31.660629926407655 0 0 0
1421 9 1 9.708956372195912 13.199709595868896 32.53314079973849 0 0 0
1422 9 1 9.734482743492125 13.67934695879967 33.95082750853505 0 0 0
1423 9 1 11.066050274399728 13.262660399819689 34.524809575673416 0 0 0
3169 24 1 17.438405124822392 13.273074915416702 30.326886405178236 0 0 0
225 3 1 7.004955430535863 2.1013906102604687 21.531729752373355 0 0 0
7670 58 1 6.704656252537675 15.650040790722262 36.07224327381459 0 0 0
662 52 1 14.431100013712456 4.826725511756756 39.2188939719368 0 0 1
756 60 1 13.08870055833383 9.391795091858146 37.08743762441812 0 0 0
1429 9 1 10.499757368642273 15.39513839521904 28.053203804918716 0 0 0
1430 9 1 11.765822239951602 15.383164052142797 28.846340741927815 0 0 0
1431 9 1 11.662429275599745 15.780840480214646 30.333114144406508 0 0 0
1723 13 1 6.99772349976813 19.37174762460239 21.93644750309566 0 0 0
6407 48 1 2.3473050501666104 0.4771199672321108 35.439866841118764 0 0 0
8183 62 1 2.453297854926059 22.447352031015956 34.481879188693576 0 0 0
2246 15 1 11.525788322389905 23.863360286155853 28.38111130387847 0 0 1
7868 58 1 4.992077623149608 17.45047819637582 39.32345940941664 1 0 0
6947 49 1 10.070971118773754 6.989032059984494 38.241100838957124 0 0 0
3064 51 1 2.956115599763738 4.000236445978425 36.36037902294584 0 0 0
237 3 1 15.290179124631244 1.9255063332322329 34.07169023368783 0 0 0
1650 11 1 5.064555297008709 17.16638652091973 25.32441871063944 0 0 0
2030 14 1 4.918277024115601 22.51280917613181 24.52108272174391 1 0 1
744 5 1 15.799132208497209 6.3911700445891695 33.2418775394694 0 0 0
2248 15 1 12.93464194909334 23.878879938259477 30.632328487796983 0 0 1
651 52 1 7.034925422411293 4.382761260566241 27.207487968796258 1 0 1
1735 13 1 15.690819683952329 19.789378095017845 34.81511755381921 0 0 0
2270 31 1 11.970929239575247 0.0018793870769415206 22.039775882958665 0 0 0
8186 62 1 3.924352432738358 22.349378614518184 38.11040259042535 0 0 0
4637 11 1 0.806518540337593 2.8502325243592415 39.488803413786215 0 0 0
2251 15 1 15.600148490433387 24.80442933420645 33.232736474675264 0 0 1
2941 42 1 16.230029670582283 10.806719416433435 21.95124225652009 0 0 0
1425 9 1 7.73606329368292 15.611353881788991 23.690347475993594 0 0 0
6624 12 1 5.388835636938484 2.3126255022247104 31.685985953415035 0 0 0
979 7 1 17.01914978075703 11.312830990426935 35.835651374437475 0 0 0
7206 56 1 5.215433280475627 11.272393481705961 31.92045132167995 1 0 0
3608 56 1 11.866760093975497 17.774551884407725 23.22369870401821 0 0 0
1193 16 1 9.621400775091304 11.388300399486013 25.44624734655353 0 0 1
2406 43 1 18.153670189866943 1.8351418536504485 23.711423010718292 0 0 1
2247 15 1 12.737383449888684 24.35522411259129 29.150495387734345 0 0 1
6940 49 1 4.5800931352742476 6.624652585994946 31.480484976847567 0 0 0
5287 38 1 0.7020183873695907 7.151504456831392 39.71017228187492 0 0 0
1651 11 1 5.404850492833419 17.899510126401868 26.581191295711463 0 0 0
239 3 1 16.868028006855706 2.219285111082233 36.22229853066113 0 0 0
6942 49 1 5.840938705369163 6.672455138230924 33.58026070348812 0 0 0
7200 19 1 0.7493965674956573 10.644117372736142 25.621334801978417 1 0 1
6625 12 1 5.532785620949777 2.038782967652256 33.244501936319615 0 0 0
2254 3 1 17.139450937864186 24.404043429546928 36.781787733273816 0 0 0
1203 9 1 14.152433185589222 12.93233895490656 38.607600925168185 0 0 0
3160 24 1 10.7087230035318 13.572060688872519 21.23644105497525 0 0 0
1726 13 1 8.986584068285614 20.358975106697457 25.258321999530153 0 0 0
1727 13 1 9.98955600594762 19.584780411920878 26.185568299466926 0 0 0
1728 13 1 10.60071821565685 20.243800596660773 27.395718700386805 0 0 0
1729 13 1 11.331977784270181 19.390620026350774 28.480089254240617 0 0 0
2034 14 1 7.898114640904575 22.435411285315105 28.607853665581978 0 0 1
3830 56 1 10.538816331331912 18.00844554882514 21.03651046582155 0 0 0
1657 11 1 9.577504911779416 18.232201046642626 33.045396070611645 0 0 0
741 5 1 13.047568418511144 6.9031345121309355 30.398677466237082 0 0 0
648 52 1 4.06223888743736 4.512111017842191 24.5125472542028 1 0 1
8442 64 1 7.061061595501312 24.58992870116768 35.13006314066705 0 0 0
1191 16 1 8.142464866183596 11.451983407193993 23.407891481347512 0 0 1
1433 9 1 13.388747475276965 15.971022431623288 32.39163030720093 0 0 0
2028 14 1 3.577191050401926 22.53334618639987 22.305876630604224 1 0 1
734 5 1 8.630231735477238 6.60623125148203 22.81956752818815 0 0 0
1946 64 1 13.376764198216122 22.580876955101346 37.37873156433456 0 0 0
1947 64 1 13.505032915992686 22.266259217655964 38.89622014663456 0 0 0
7673 58 1 9.464856446006884 14.940103429794876 38.619942059388926 0 0 0
4262 30 1 18.242833038899942 22.776858933056264 31.132166923266908 0 0 1
40 5 1 18.493425144328484 7.257326376785082 38.964784623554934 0 0 0
2029 14 1 3.5494464762908873 22.1775794368394 23.85586669915679 1 0 1
8446 64 1 9.702094875790074 25.0097650338705 39.463821188160175 0 0 0
6622 12 1 3.871884046402244 1.9985436410181048 29.65024240031112 0 0 0
2273 31 1 14.572454553991935 0.34030266118849867 24.916599629628685 0 0 0
6623 12 1 3.9661388405603857 2.1432695736042566 31.174650909536304 0 0 0
2031 14 1 4.96466767038538 22.502804240273193 26.052138477779756 0 0 1
8437 64 1 2.9825709875638813 24.97450212937156 30.335266455317974 0 0 0
226 3 1 8.068523478605297 2.78938361839574 22.301768699216005 0 0 0
2244 15 1 10.324556715975877 23.910144734628574 26.07607912755758 0 0 1
4258 30 1 15.478170941381588 22.716551853662235 26.894686040554376 0 0 1
2909 22 1 16.04269682239996 8.4506056488337 27.846224064989777 1 0 1
650 52 1 5.669647525978239 4.4882826408399685 26.473113507910536 1 0 1
1977 64 1 9.233275205518556 22.278644642308013 30.85359184271291 0 0 0
1978 64 1 9.170320324398688 22.56425701857117 32.36181151666457 0 0 0
1979 64 1 10.596646794779144 22.589019754974913 32.95342221514492 0 0 0
1980 64 1 10.628835120133862 22.556128860014887 34.470108113763644 0 0 0
1981 64 1 11.961715758169339 22.607291191919302 35.13651061651743 0 0 0
1982 64 1 12.018213630748397 22.406597105704396 36.65274719252846 0 0 0
2277 31 1 17.23219986616615 0.5447224881521746 29.185825359268875 0 0 0
3600 29 1 16.868134891181036 15.88771791506837 23.338267832030443 0 0 1
1436 9 1 16.290413221724773 15.810923527450871 34.827295348644334 0 0 0
1435 9 1 14.851123616508723 15.893137592258274 34.28267453353992 0 0 0
7908 59 1 3.7605652518755015 17.96549329469808 37.135178677136594 1 0 1
2419 4 1 17.33523586773556 4.437865996952393 30.25256102461652 0 0 0
973 60 1 7.860431474341985 8.151487847376242 30.05974107539474 0 0 0
10 55 1 11.791223054969759 0.27562041729224007 34.79174962158025 0 0 0
4263 30 1 18.336656101972057 22.035493268650104 32.499477769555455 0 0 1
740 5 1 12.813093199724856 6.493223286799242 28.951010267212443 0 0 0
7213 56 1 9.882474503985298 11.288455267489882 39.33523355537513 0 0 0
6411 48 1 5.386210025258965 0.3788203041750774 39.49821835242969 0 0 0
1664 11 1 15.188036642102501 17.51597790959209 40.18981803194524 0 0 0
736 5 1 10.156874546060518 6.747315236578949 24.974411689247415 0 0 0
1204 9 1 14.65513673152251 13.756738305544829 39.872243247403944 0 0 0
965 50 1 2.5945710379100198 8.544394614330331 21.32410485912266 0 0 1
1655 11 1 7.962837955353401 17.94876807117867 31.019916342532753 0 0 0
4261 30 1 17.291920386925277 21.995007949203572 30.203277737086385 0 0 1
7202 19 1 2.0520722339969284 10.69666915898277 27.83362244667361 1 0 1
742 5 1 14.371568823395007 6.554430810114556 31.0234327789725 0 0 0
7661 58 1 0.6001701093820084 15.596841884965196 26.069671061550522 0 0 0
3601 29 1 18.24581999263029 15.940598222843759 24.035858644338102 0 0 1
6627 12 1 7.0324310757444195 2.4730925765899054 35.39248618761153 0 0 0
1432 9 1 13.085835352010537 15.884900999527808 30.895859693903045 0 0 0
5373 32 1 1.5637433109389525 10.856993596649657 40.478606707311144 1 0 0
7210 56 1 7.7614164225103295 10.739100030321435 36.13249613525167 0 0 0
1428 9 1 10.61618727179502 15.286496530394192 26.493721959450212 0 0 0
6680 51 1 4.435367647101986 4.10367913136562 38.490309485573135 0 0 0
7205 56 1 3.9029825241082166 11.684093762286611 31.27558996083352 1 0 0
1190 16 1 7.066152728347062 10.892485714142516 22.542371377995757 0 0 1
1426 9 1 9.090848382107387 15.926897592833496 24.397053351982997 0 0 0
1427 9 1 9.240809214034817 15.434980590859336 25.83058227843551 0 0 0
2977 51 1 3.555999714000644 4.862683158863061 37.46953923375443 0 0 0
223 55 1 3.4882559329926686 0.37647905422544625 23.33061871884994 0 0 0
739 5 1 11.388952727051251 6.894479049440149 28.532215772431368 0 0 0
3170 24 1 17.870821923033617 14.048597159502103 31.575707561672715 0 0 0
4290 32 1 17.69213076191579 24.09331907315948 23.92440924314489 0 0 0
7981 60 1 6.187318049053797 20.45685474133433 33.26441746233564 0 0 0
7 55 1 9.321202991031253 26.06235217844652 31.858666087572956 0 -1 0
7446 26 1 4.651016486638728 12.936830539911744 38.70293634752885 0 0 0
7982 60 1 6.451045565980375 19.57989020045311 34.50745136398368 0 0 0
6629 12 1 8.470871520412064 2.5645949265702415 37.44048563725449 0 0 0
7444 26 1 3.1293745672661633 12.886545738381662 36.628410382339744 0 0 0
1201 9 1 12.705576942032177 13.099092083276867 36.453289617610444 0 0 0
4257 30 1 14.577791592529119 21.780930464570265 26.158718941636877 1 0 1
6992 54 1 6.2962039212885195 8.394046622734914 40.14968480129062 0 0 0
2414 4 1 14.7637925135218 4.315561012634497 24.335346817528844 0 0 0
2253 15 1 16.73547334452869 24.98668455070424 35.4672941425218 0 0 1
3832 28 1 15.671624659592188 20.19009017298251 21.776597777941788 0 0 0
658 52 1 11.529505645396657 4.205217379326297 34.92337891485684 1 0 1
2252 15 1 15.925217097809231 24.160791277366563 34.54716021755329 0 0 1
2632 20 1 17.328519284143287 7.17869641547019 23.1303285400384 0 0 0
1658 11 1 10.542843118420784 17.422695040141875 33.85666174128096 0 0 0
2404 43 1 16.759390026727818 1.934894863520693 21.80254008647636 0 0 1
975 60 1 9.251695691936833 8.27559767303909 32.233753542344786 0 0 0
7201 19 1 1.0214225050295183 11.347000658961647 26.949256821987273 1 0 1
1948 64 1 14.856182472029738 22.732935258093146 39.45591939088983 0 0 0
661 52 1 14.431336023288718 4.780919072821031 37.669570542973894 1 0 1
8444 64 1 8.687170653979033 24.81191076484172 37.13508033324539 0 0 0
1659 11 1 10.93250627058282 18.17734874753502 35.12957829020199 0 0 0
974 60 1 8.211226720059164 8.921766166678616 31.3588347311817 0 0 0
1424 9 1 7.6353550709114915 15.816427829299604 22.181709569021894 0 0 0
7212 56 1 9.097736246411468 10.599328802612463 38.21115654425741 0 0 0
7909 59 1 3.6450215586893524 17.935215329572337 38.708431414326725 1 0 1
6937 49 1 2.6867936715661496 6.021101050790077 28.051549391371402 1 0 0
1730 13 1 11.819028047668382 20.33445154211916 29.604061677259565 0 0 0
3613 56 1 15.853002263821455 17.788923732109126 28.367385557044905 0 0 0
7208 56 1 6.259786631987115 10.826158864031527 34.028248873185085 0 0 0
2278 31 1 17.555701640932927 0.11417227956776638 30.61346224919111 0 0 0
235 3 1 13.711689344844476 2.0798088428300026 32.12609690502504 0 0 0
1733 13 1 13.956569191403664 19.790715813016828 32.83090096674937 0 0 0
7663 58 1 1.8974068270445998 15.455613428672189 28.268945870809635 0 0 0
8440 64 1 5.530220996204303 24.391920998462883 33.09539058902579 0 0 0
234 3 1 13.612861562220525 2.682914400638453 30.725990080344346 0 0 0
1411 47 1 2.6666514472343334 13.427383318691083 21.915790271527502 1 0 1
6621 12 1 2.385359159758101 2.2379455833102098 29.300885623969826 0 0 0
3612 56 1 14.49150703700294 17.54808883665812 27.695663765695155 0 0 0
3616 56 1 17.440663034698403 18.142872914830104 31.942307431270798 0 0 0
8443 64 1 7.2333009101092856 24.690819927384315 36.631557216519994 0 0 0
7985 60 1 8.41404370241563 20.525191499754932 37.797022847219694 0 0 0
2272 31 1 13.353895079166477 26.54711614405595 24.19911753460245 0 -1 0
3610 56 1 13.198717142388567 17.775261304369796 25.433047695988336 0 0 0
1738 13 1 17.636998870151913 20.683467088371707 38.08335953899709 0 0 0
746 5 1 17.059021007032065 6.33064315764538 35.464703087672106 0 0 0
977 7 1 15.544971786692674 11.41968016465707 33.93483671514103 0 0 0
6626 12 1 6.891807479348648 2.5586097896323876 33.8745676340388 0 0 0
2275 31 1 15.83781790200704 0.4561662106987481 27.136132275339953 0 0 0
738 5 1 11.35124961283199 6.576061311830265 27.014009325231584 0 0 0
758 60 1 14.186058359631797 9.162453286746441 39.442133224585604 0 0 0
1439 9 1 17.749652023339895 15.4846727573261 38.37419118092053 0 0 0
1647 9 1 6.264932734805218 15.60680740422498 21.51754823533069 0 0 0
972 60 1 6.800712523196812 8.987683476694292 29.324895529102974 0 0 0
653 52 1 8.287406871045965 3.9424763376603247 29.40262641401651 1 0 1
11 55 1 12.148217186727782 26.387054053891436 36.163181190277314 0 -1 0
7979 60 1 4.47088854860554 20.87888954046133 31.282855148633956 0 0 0
2420 4 1 18.639636316191023 4.199042771742416 30.95326081868518 0 0 0
663 52 1 15.863971860199612 4.713032333009261 39.75822503887714 0 0 1
2911 22 1 17.398311096832803 8.365904564971407 29.98850915202972 1 0 1
3836 28 1 18.390932540157845 20.25613954774406 26.19402317947889 0 0 0
646 52 1 2.374595046444872 4.393465476135261 22.395701959345175 1 0 1
3166 24 1 15.325988579114716 14.168650486200962 27.26444093479624 0 0 0
9 55 1 10.535783035494385 26.41526624399658 34.11792631636449 0 -1 0
1739 13 1 18.554483124296123 19.971704266610278 39.086130893179146 0 0 0
6948 49 1 9.870874858721017 6.8520019553173706 39.738185845201826 0 0 0
737 5 1 10.096656605980922 7.186937782778183 26.39077494976938 0 0 0
8182 62 1 0.9429528564090648 22.550546605122165 34.08901600170387 0 0 0
7665 58 1 3.395213837370125 15.447183539363897 30.424504451868582 0 0 0
1662 11 1 13.596056602480987 17.41416635945183 38.08190907715839 0 0 0
4259 30 1 15.98933255957972 22.057674759110647 28.146811243748704 0 0 1
6408 48 1 3.314081294309788 26.362188324589006 36.28435485215363 0 -1 0
8438 64 1 4.328430322810469 24.729480752253288 30.922511692948547 0 0 0
2032 14 1 6.364778105731191 22.433100294927826 26.64669482641547 0 0 1
3833 28 1 17.01711261988494 20.399374954338075 22.536096795997572 0 0 0
6944 49 1 7.2043874437934 6.8216828303684265 35.72904944202421 0 0 0
7984 60 1 7.545190248917635 19.694262853462167 36.88268998689922 0 0 0
2250 15 1 14.632219933911909 23.940053106027275 32.533758745861725 0 0 1
745 5 1 15.794299426033707 6.773267556210869 34.71798400005914 0 0 0
7601 51 1 5.165431096206623 5.062421886776457 39.402857318663926 0 0 0
8187 62 1 5.1820321962260865 21.834473843326453 38.79209190025555 0 0 0
6939 49 1 4.356098594463542 5.958916212555978 30.102191557943634 0 0 0
238 3 1 16.489995663041054 2.634388857251814 34.75347046530855 0 0 0
2241 15 1 8.330210537491883 24.64583810526119 22.67088879059803 1 0 1
752 60 1 9.762216879915917 9.295705969950243 33.273054107393925 0 0 0
735 5 1 8.968892515543649 7.27347354289464 24.15604750012768 0 0 0
7669 58 1 6.497809984644898 15.429749992092844 34.58591997394461 0 0 0
8435 64 1 1.799124895384241 24.707696437599 27.953425563459326 0 0 0
7672 58 1 8.273038653426438 15.744300244178424 38.023429681587125 0 0 0
1654 11 1 7.912022807199866 17.471336019042276 29.554759902303736 0 0 0
6986 54 1 1.7068944068600012 8.479258108613065 33.94575651067824 1 0 0
2415 4 1 14.722406266056188 4.162619302457067 25.862835309050492 0 0 0
7906 59 1 2.50607470170191 18.219750179008514 34.95131924308545 1 0 1
7442 26 1 1.5770731184005782 13.234285892030144 34.584920145724055 0 0 0
1189 16 1 6.59810600235533 11.707610917156172 21.334069875738646 0 0 1
4256 30 1 14.294713841082835 22.286729830907962 24.754404115979955 1 0 1
654 52 1 8.374036922507628 4.107112611926192 30.92230298051804 1 0 1
8439 64 1 4.438138493830377 25.206240361089336 32.391004816284934 0 0 0
2998 51 1 0.4211885062446594 4.082368519667727 31.992530726540856 0 0 0
7983 60 1 7.317987921885334 20.340614284118104 35.51149716070536 0 0 0
6409 48 1 3.9976938096696872 0.530075850277187 37.36371650246312 0 0 0
6989 54 1 4.026540284385602 9.240753046625478 37.0481929565089 0 0 0
3609 56 1 13.192823627242635 17.778063408365938 23.94946979095119 0 0 0
13 55 1 13.618377449924525 26.569785729872997 38.24607938411988 0 -1 0
3164 24 1 13.719494519350686 14.103322348437967 25.166945108706464 0 0 0
969 60 1 5.047941450823235 8.713250267328695 25.836531578932423 0 0 0
659 52 1 12.931305093016505 4.515706382179327 35.553898988678164 1 0 1
8445 64 1 8.650347293138736 24.328909836866277 38.6322450574108 0 0 0
2243 15 1 9.912883625485922 24.535227169204255 24.72457309397251 1 0 1
2033 14 1 6.418832410448497 22.595737026200666 28.19278706524144 0 0 1
2418 4 1 17.26318258970459 4.143026976600512 28.746661334894583 0 0 0
7907 59 1 2.5454477005046083 18.4565549519477 36.43955439763639 1 0 1
6991 54 1 5.244843253451783 9.160860508466934 39.34484994512821 0 0 0
2912 22 1 17.764183463881746 9.040619988681492 31.300997488953698 1 0 1
3607 56 1 11.873026881921154 17.83576176550069 21.7038625172558 0 0 0
7671 58 1 8.072265320141762 15.280411635460664 36.604252448206864 0 0 0
7089 60 1 10.008699429433733 20.53230824589341 39.85514052615524 0 0 0
3834 28 1 17.023532778733838 19.94150970861927 23.998701344101892 0 0 0
757 60 1 14.098933275474733 8.664417929988675 38.01629490584912 0 0 0
7941 59 1 0.897503368086799 18.340700717452517 32.88027914947304 1 0 1
1724 13 1 7.368616546868086 20.19745414552328 23.151746011522114 0 0 0
2411 4 1 11.842520994832173 4.011897289166931 21.571877711136572 0 0 0
7662 58 1 0.7841783407772323 16.143929450539726 27.491251553032676 0 0 0
3163 24 1 12.993832900148135 13.038456407417922 24.289367216211936 0 0 0
1732 13 1 13.40163792818582 20.554345722731522 31.652800513574817 0 0 0
2027 14 1 2.411147225596118 22.083770858026508 21.589222291644372 1 0 1
8441 64 1 5.6780232934522274 24.814057294769423 34.581705838904895 0 0 0
6990 54 1 4.729225146215365 8.38518204901067 38.15438007086823 0 0 0
12 55 1 13.379347472185039 0.3557614142473719 36.78078022005718 0 0 0
2242 15 1 8.74023026393093 23.9360907738957 24.042260131857336 1 0 1
2416 4 1 16.059353437063347 4.383451488174699 26.59066341009703 0 0 0
7978 60 1 3.413608145224987 20.185217419378926 30.418360121242987 0 0 0
15 55 1 14.845291224915833 0.11595165047682375 40.43341002068519 0 0 0
6619 12 1 0.9034688995536325 2.562628542806562 27.165756126384718 0 0 0
6 55 1 9.278827578164343 26.326394737275667 30.361592656241974 0 -1 0
3615 56 1 17.244254530294732 18.08374962979816 30.455874391030164 0 0 0
2943 42 1 17.860320706969926 10.940720655744519 23.956487039439867 0 0 0
978 7 1 16.26367227128598 10.437299983362895 34.82813808353947 0 0 0
1434 9 1 14.842592536659064 15.790243656460099 32.768105665303366 0 0 0
7209 56 1 6.74229168015664 11.520270641905004 35.33228796287994 0 0 0
2276 31 1 15.992346454657852 26.58797203011148 28.548192586708385 0 -1 0
6941 49 1 5.67982472713118 5.943527216289173 32.24133299078406 0 0 0
240 3 1 18.06064256774822 2.9757973929834485 36.733010256358064 0 0 0
968 50 1 3.832333701820127 9.12257185194436 25.04134280395983 0 0 1
743 5 1 14.642077696758978 6.98688909321196 32.467712050579436 0 0 0
1660 11 1 12.063888110764983 17.46566472638999 35.93057348295057 0 0 0
7905 59 1 1.0884999093250727 18.554463211741307 34.41391752801027 1 0 1