LAMMPS data file via write_data, version 29 Oct 2020, timestep = 32000000

10752 atoms
2 atom types
10752 bonds
3 bond types
10752 angles
3 angle types
10752 dihedrals
3 dihedral types

-0.14019591925125496 31.0081159192383 xlo xhi
-0.12113307625790526 26.79185307622928 ylo yhi
-1.2853264949565357 284.28468649426907 zlo zhi

Masses

1 14
2 15

Pair Coeffs # lj/cut/omp

1 0.0914 3.95
2 0.1947 3.75

Bond Coeffs # harmonic/omp

1 449.5 1.53
2 449.5 1.53
3 449.5 1.53

Angle Coeffs # harmonic/omp

1 62.0967 114
2 62.0967 114
3 62.0967 114

Dihedral Coeffs # opls/omp

1 1.411 -0.271 3.145 0
2 1.411 -0.271 3.145 0
3 1.411 -0.271 3.145 0

Atoms # molecular

230 2 1 6.075289495003882 3.2968434135835665 2.1746852263103915 0 0 0
231 2 1 6.910266868679331 3.5126520533836136 3.440588749181563 0 0 0
229 2 1 6.789346267465616 3.7301150566493906 0.8986977331948274 0 0 0
2 1 1 2.278810746719193 1.0791249671857392 0.769268033187489 0 0 0
232 2 1 6.200940127685586 3.0779134375455914 4.72753391574793 0 0 0
228 2 1 6.09792480549734 3.2105376354370314 -0.39037183096503836 0 0 0
5 1 1 2.414971290285132 -0.048637118890969847 4.504779887129297 0 0 0
450 3 1 1.6426974978022675 4.587631131986076 -0.5641359580953437 0 0 0
3 1 1 2.157391592141208 0.11050364378769173 1.9285924099202822 0 0 0
4 1 1 2.4190819291549275 0.8159256834072346 3.2947988308475704 0 0 0
452 3 1 1.7294365207674267 4.851174291189254 2.0304400735327213 0 0 0
454 3 1 1.9371554465285024 4.936152195061035 4.582385979320614 0 0 0
1 1 1 2.2074715547096204 0.375109218349606 -0.5462667401644264 0 0 0
451 3 1 2.352943944259914 5.1260921366200565 0.6599756709031857 0 0 0
453 3 1 2.641418008816293 5.133932301050732 3.2552899192110196 0 0 0
233 2 1 6.799074435132577 3.407131529437506 6.082103016253668 0 0 0
6 1 1 2.424116754617753 0.6827188751252576 5.828910206550934 0 0 0
2693 13 1 10.506351698640254 1.4000508868296313 4.690395986595874 0 0 0
2691 13 1 10.155460281840302 1.4631301066966578 2.2461829008550946 0 0 0
2915 14 1 13.939837533767449 2.861541170602049 1.54089559951287 0 0 0
2917 14 1 13.963562537713683 2.57716359176618 4.188392527011578 0 0 0
2914 14 1 14.645803092414438 2.2628237849958697 0.31026530811003306 0 0 0
2916 14 1 14.589583933813982 2.1577362282767885 2.7896679782740863 0 0 0
2913 14 1 14.155939397130943 2.908313541982875 -0.9535923128331657 0 0 0
2689 13 1 9.667219196604096 1.27700979863438 -0.3276296521138192 0 0 0
3139 15 1 10.815859960764369 5.411159917938427 3.0839474596373284 0 0 0
2692 13 1 10.304280332152821 0.5352689362744584 3.4739771872130785 0 0 0
2690 13 1 10.149557769807176 0.6710965243640151 0.9494226592775421 0 0 0
3137 15 1 10.636422164784996 5.079909628272035 0.6171386376698562 0 0 0
3138 15 1 10.273380195468146 5.9861805263114745 1.8080401103631822 0 0 0
3140 15 1 10.352492287710527 5.991769324812868 4.425997447538954 0 0 0
3360 15 1 9.94273149425133 5.589797585165873 -0.6611022679478105 0 0 1
2918 14 1 14.579039052260024 2.073382117813335 5.484747785078816 0 0 0
2694 13 1 10.170332920923823 0.5961708527093883 5.916883547982168 0 0 0
3141 15 1 10.647844158723 5.301094268713707 5.781000479003623 0 0 0
678 4 1 6.088110447221382 7.080687818490654 4.5227573078488525 0 0 0
676 4 1 5.810321797725343 7.208657135109081 1.9983801393386416 0 0 0
677 4 1 6.750354315117051 7.4259240464018 3.2099944609796998 0 0 0
675 4 1 6.643966040857407 7.630339992949791 0.739468757584631 0 0 0
900 5 1 2.3090929243542537 9.591275432827402 0.7334871576952331 0 0 0
902 5 1 2.35059272128143 9.538249244855875 3.2527491339580035 0 0 0
901 5 1 1.723633916586483 8.920127652849033 1.9632247694905982 0 0 0
903 5 1 1.651177330074443 9.047529479601339 4.4607495732507285 0 0 0
674 4 1 5.883305711017226 7.332270658376786 -0.5708987435469738 0 0 0
899 5 1 1.7383549746607398 9.116236648332105 -0.6367485050769478 0 0 0
1122 6 1 6.1001952564968995 11.3867459468333 -0.8847495459388499 0 0 0
1124 6 1 6.146115854207397 11.16806271279585 1.5406361833783433 0 0 0
1126 6 1 5.88350491601606 11.053830565260574 4.189173198646937 0 0 0
1125 6 1 6.41575364961266 11.828404776059353 2.941035405710288 0 0 0
1123 6 1 6.4071457141617625 12.126455515827455 0.36072761295994193 0 0 0
904 5 1 2.4912253454985507 9.339739166375798 5.709015171556815 0 0 0
3362 16 1 14.18100494187031 6.754258932723959 0.8565949287966563 0 0 0
3364 16 1 14.158539692685906 6.619542147605501 3.4442280548016244 0 0 0
3361 16 1 13.790438819087084 7.442526280230342 -0.447821668970556 0 0 0
3589 17 1 10.127610299971716 10.005372525992097 4.398202558241845 0 0 0
3365 16 1 13.914479349905447 7.248973606008667 4.829541079129861 0 0 0
3363 16 1 14.112815096795085 7.514123427627997 2.218786751242501 0 0 0
3587 17 1 10.127389898660729 10.133656236581409 1.9019785905481092 0 0 0
3588 17 1 10.744488140940952 9.548293513677562 3.1216782647364782 0 0 0
3586 17 1 10.394659462111548 9.331621222870455 0.6764815020594341 0 0 0
3810 18 1 14.245150325121003 11.504299095473531 0.4095960491221622 0 0 0
3585 17 1 9.909922776386084 10.04320174895872 -0.6118199097728498 0 0 0
3812 18 1 14.088223399441814 11.34194165454148 2.91171246878255 0 0 0
3813 18 1 13.495673367615623 11.8177629152847 4.2634238237711255 0 0 0
3811 18 1 13.496053957618217 11.99620746445622 1.6857097397060854 0 0 0
3809 18 1 13.408651902669867 11.822679023533514 -0.8767567954206428 0 0 0
3590 17 1 10.646729881195999 9.470475076581653 5.733663603671698 0 0 0
3366 16 1 14.338591490414842 6.502670694591255 6.081634621435609 0 0 0
1349 7 1 2.1569827147609737 13.176454451699179 4.642869531146713 0 0 0
1347 7 1 2.480561577707296 13.434578291615395 2.0899405939804763 0 0 0
1348 7 1 2.5342344929256586 14.095808867734325 3.428199075830941 0 0 0
1346 7 1 2.5969275543760335 14.200753604954759 0.7705900471656402 0 0 0
1570 8 1 5.744927458248136 16.380464124705295 1.6804118386844156 0 0 0
1572 8 1 6.007980826482697 16.051401674054073 4.156865990935611 0 0 0
1571 8 1 6.623972086495072 16.570214543119327 2.8868412206000436 0 0 0
1569 8 1 6.371794918247774 16.90127196461357 0.3393040370171323 0 0 0
1797 9 1 1.655159582548967 17.78607614680838 4.667650654935514 0 0 0
1793 9 1 1.7842544724627283 17.977473380533226 -0.38732180213187506 0 0 0
1792 8 1 5.690521273286157 16.455904846563254 -0.9064459936276765 0 0 1
1795 9 1 1.797267790411465 17.82461709288559 2.102107039095767 0 0 0
1796 9 1 2.2506025320301064 18.44998168175818 3.4298809833880517 0 0 0
1345 7 1 2.311487757948753 13.387708146041751 -0.48901573497849293 0 0 0
1794 9 1 2.4096827644303622 18.515391148514038 0.8993465363790776 0 0 0
4034 19 1 9.988969864992344 14.018814068980936 0.6977943027048512 0 0 0
4036 19 1 10.438299233337226 13.735569711688385 3.1808326581134825 0 0 0
4035 19 1 10.168077437770211 14.680818672737184 2.012328086096019 0 0 0
4037 19 1 10.122442572150108 14.472107198966604 4.462585556765401 0 0 0
4258 20 1 14.184853746547168 16.031765404504423 0.690360585322926 0 0 0
4259 20 1 13.342412736785178 16.240967558142035 1.9133247578403054 0 0 0
4261 20 1 13.594259852452923 16.370381911197303 4.464594639794739 0 0 0
4260 20 1 14.154450757113207 15.905841432051755 3.168323877412532 0 0 0
4257 20 1 13.4586934264365 15.928786085273867 -0.6327161367889781 0 0 0
4484 21 1 10.073677929129977 18.385454068693303 3.1322164183036225 0 0 0
4482 21 1 9.91666019976588 18.358885806963922 0.6853450342804099 0 0 0
4033 19 1 9.822791327237232 14.950241252347187 -0.476393895878658 0 0 0
4485 21 1 9.756765462261452 19.098558420112525 4.431728949603735 0 0 0
4483 21 1 9.660233669694554 19.185312738464283 1.8836299263347729 0 0 0
4481 21 1 10.109770076667173 19.171616821502464 -0.5295940079121445 0 0 0
4038 19 1 10.250915978807031 13.613567090672888 5.73760148146315 0 0 0
2467 12 1 6.205985663257264 26.31561686611536 0.6623888696054407 0 0 0
2468 12 1 5.755590843478267 25.736080795609304 2.0176959011934286 0 0 0
2466 12 1 5.617874531059147 25.639195181598755 -0.5846003860603567 0 0 0
2469 12 1 6.501744855541951 26.08898008185292 3.311408475911743 0 0 0
2018 10 1 5.819540383783201 20.505223626340847 2.190548748678843 0 0 0
2470 12 1 5.881010194359259 25.436778649149204 4.53512010062582 0 0 0
2245 11 1 1.9568898986406538 22.508819071828807 4.196009977012991 0 0 0
2020 10 1 6.167285600303405 20.338837193276223 4.646368267517868 0 0 0
2019 10 1 6.518484394593907 21.061638886909094 3.374298859041507 0 0 0
2244 11 1 2.287298593255155 23.33696063244674 2.9795259881901908 0 0 0
2242 11 1 2.7139328971319876 23.29401879787792 0.43083077556427973 0 0 0
2017 10 1 6.238214269824301 21.17164264224846 0.891790713772108 0 0 0
2243 11 1 2.0645871406027516 22.584001020591757 1.6535007344416326 0 0 0
2241 11 1 2.1274185362177866 22.856811512584073 -0.8857269478799149 0 0 0
2240 10 1 5.456628169613183 20.751621568260624 -0.35015595927416854 0 0 1
2021 10 1 6.426125839265708 21.133453867006402 5.935607279552094 0 0 0
5153 24 1 13.719579014304434 25.59836373963817 -0.39552572481000037 0 0 0
5155 24 1 13.634763569242107 25.424648461568545 2.188743020568408 0 0 0
5157 24 1 13.61961423101565 25.32459687835204 4.673344242706079 0 0 0
5156 24 1 14.1011117737235 24.646232586001624 3.41927911006798 0 0 0
4708 22 1 14.055899481179017 20.329810063684356 3.3272732554155278 0 0 0
4706 22 1 13.967440519011705 20.174748301193173 0.5969863783703404 0 0 0
5154 24 1 14.253497305568585 24.95274226728906 0.8746907196786902 0 0 0
4929 23 1 9.430039658904375 23.31692377918412 1.7382933796179394 0 0 0
4931 23 1 9.49318325882166 23.37984561935663 4.30048329307547 0 0 0
4930 23 1 10.088249733865643 22.72202916761323 3.0339815100853125 0 0 0
5152 23 1 10.127199091008237 22.92977145962745 0.47979130188747887 0 0 1
4709 22 1 13.804880401641551 21.284572366807403 4.5053665697388645 0 0 0
4707 22 1 13.812761156386316 20.935802748266763 1.8973310755021702 0 0 0
4705 22 1 13.352875133264071 20.91526377962658 -0.6118911580523299 0 0 0
5151 23 1 9.341053644447966 23.29124104474822 -0.7563994813295589 0 0 1
4710 22 1 13.811262947329926 20.51448803768304 5.750326952219131 0 0 0
5158 24 1 13.98411548113716 24.629743062322845 5.96094563196118 0 0 0
455 3 1 2.751466659063882 5.126946923186789 5.920201685786645 0 0 0
236 2 1 5.921569738252298 2.562688469313142 9.856576731649804 0 0 0
234 2 1 5.965183240782456 3.0576373387576865 7.292107492590194 0 0 0
235 2 1 6.606759534122242 3.2484662169693075 8.647097261735457 0 0 0
237 2 1 6.269351055809573 3.3392733033987345 11.104526201312025 0 0 0
456 3 1 2.111056001726204 4.624313169842931 7.1680785560246765 0 0 0
8 1 1 2.4060134097157437 0.6713928307979319 8.429652721146352 0 0 0
10 1 1 2.3084480339138658 0.717914556752143 11.020344337705646 0 0 0
238 2 1 5.645265217250982 2.7088450411515073 12.327433076096712 0 0 0
458 3 1 2.062973552343519 4.565382639223376 9.756154541450842 0 0 0
460 3 1 1.9438537631163895 4.398198972988013 12.218900924476811 0 0 0
459 3 1 2.732946968588385 4.94352292015342 11.06456131807619 0 0 0
457 3 1 2.7799232755714027 5.091292292875938 8.50962234970165 0 0 0
7 1 1 2.4156423134148572 26.718335440644434 7.116195617472062 0 -1 0
9 1 1 1.9588566937522955 0.0015183777726375386 9.71387235967987 0 0 0
2921 14 1 13.455201446083295 2.5528976728158157 9.222676437253039 0 0 0
2919 14 1 13.626371694818557 2.435396398354725 6.610736058419618 0 0 0
2923 14 1 13.44760041952409 2.7829857613831783 11.77255407852248 0 0 0
2695 13 1 10.186757190570953 1.2461179854969262 7.262798919146375 0 0 0
2697 13 1 9.988696474417692 1.3542858333519494 9.704422242484286 0 0 0
2922 14 1 14.149791807356927 2.2273294855719077 10.540958408402288 0 0 0
2920 14 1 14.181517344739394 2.047830953454533 8.005749009266552 0 0 0
2698 13 1 10.160511424824929 0.5913858291704973 11.003821372373023 0 0 0
2696 13 1 9.969036339995114 0.4213142226853096 8.512534673415894 0 0 0
2699 13 1 9.560416936404064 1.4030605279978252 12.164235440712892 0 0 0
3143 15 1 10.347605550358523 5.136963944788983 8.36944046237219 0 0 0
3145 15 1 10.111195895008164 4.9901525187713744 11.0052781794504 0 0 0
3146 15 1 9.40800425555462 5.538716483222768 12.245364835584523 0 0 0
3144 15 1 9.691148505721289 5.684939635448193 9.658103746908 0 0 0
3142 15 1 10.037751407078382 5.90671986221108 7.062971752375191 0 0 0
3147 15 1 9.97631683475549 4.89611459377759 13.516016805515187 0 0 0
679 4 1 6.931068971368947 7.337574452251484 5.761074502284234 0 0 0
1127 6 1 6.133374300839992 11.852495779715966 5.458809937277826 0 0 0
682 4 1 5.739923386615093 7.722728677650852 9.548963268128592 0 0 0
680 4 1 6.0244054545703305 7.186181866525753 6.999864474616507 0 0 0
684 4 1 5.608138211438136 7.505724958432214 12.119589753885531 0 0 0
683 4 1 6.420088706487359 7.998707048835241 10.915205199432437 0 0 0
681 4 1 6.677503896749047 7.531801174285808 8.309240522516836 0 0 0
906 5 1 2.4630694559823696 9.202383664033695 8.219047009951703 0 0 0
908 5 1 2.1620455577678017 9.327754481102797 10.75455681690683 0 0 0
907 5 1 1.7175841068316247 8.656037260571154 9.456603571172336 0 0 0
905 5 1 1.7222009704154144 8.83417301540965 6.940912130720866 0 0 0
909 5 1 1.489428874212724 9.011414952029506 12.06477148541702 0 0 0
1130 6 1 5.4586174353919965 11.551452522538733 9.4495071069151 0 0 0
1128 6 1 5.573476347336259 11.258205904808078 6.776627276935853 0 0 0
1132 6 1 5.8237188860054605 11.655698048981508 12.048657706634664 0 0 0
1131 6 1 6.200531558859978 12.191728000134399 10.680329209043771 0 0 0
1129 6 1 5.905326840340735 12.058740521793242 8.052126600631617 0 0 0
3814 18 1 13.937552525323142 11.090062723057885 5.580520026562306 0 0 0
3370 16 1 14.600910568172555 6.555450517332524 11.24028780490903 0 0 0
3368 16 1 14.508702267271932 6.469042073746189 8.62533585306005 0 0 0
3369 16 1 13.904027463060812 6.923326869408019 9.926074950332216 0 0 0
3367 16 1 13.864964318191499 7.108852574750668 7.366172669554599 0 0 0
3371 16 1 13.881624350515509 7.115381213563555 12.473556218234334 0 0 0
3593 17 1 9.493389186267875 9.900195723759072 9.579789880590848 0 0 0
3591 17 1 9.835447770160327 9.843367109051597 6.96860506508534 0 0 0
3592 17 1 10.487683990495466 9.62732594776145 8.40662368987451 0 0 0
3594 17 1 10.123464229636264 9.38452188601102 10.820539212468951 0 0 0
3816 18 1 13.852346902001043 11.166386434915408 8.116120946807888 0 0 0
3595 17 1 9.62100640387804 10.008100604387325 12.106169360908988 0 0 0
3818 18 1 13.629592407873018 11.045909089769898 10.562947884627704 0 0 0
3819 18 1 13.380014890169404 11.662759575554135 11.980914579516556 0 0 0
3817 18 1 13.650075414875465 12.001373490390373 9.384332440514209 0 0 0
3815 18 1 13.709907496296953 11.883044351097253 6.822631831830725 0 0 0
3596 17 1 10.159363310765588 9.370356301490947 13.44574355612895 0 0 0
3372 16 1 14.205157290981063 6.385070223240755 13.754695200689408 0 0 0
1573 8 1 6.652586647039732 16.394789011945694 5.583251561037095 0 0 0
1798 9 1 2.2605988668472032 18.2763723602264 5.931881879532387 0 0 0
1350 7 1 2.1057644675308973 13.978258937972825 5.950331743375762 0 0 0
1351 7 1 1.7699127717497092 13.088600744104205 7.16127568880678 0 0 0
1355 7 1 1.6434813957824388 13.418089069767438 12.28872123730582 0 0 0
1353 7 1 1.5623515373387544 13.268817078299803 9.794121084087521 0 0 0
1352 7 1 1.8740984094208386 13.954348120693387 8.435084987828988 0 0 0
1354 7 1 1.988851487806699 14.142080863340524 11.003945913774247 0 0 0
1574 8 1 5.768561177127535 16.290869323280848 6.851768009896961 0 0 0
1576 8 1 5.775916311237312 16.354858883265397 9.556421416253114 0 0 0
1575 8 1 6.49892896956954 16.701535253715168 8.179279932451648 0 0 0
1577 8 1 6.6719317168860375 16.69098829013678 10.813774424461412 0 0 0
1801 9 1 2.046021448321585 17.640282315992458 9.732245609721263 0 0 0
1578 8 1 6.039312320209311 16.135608929707647 12.108170008127196 0 0 0
1803 9 1 2.0643241978177205 17.870289063033898 12.325737478537762 0 0 0
1799 9 1 1.8301534359155769 17.570481489942086 7.209961004609095 0 0 0
1800 9 1 2.191893487566519 18.423848202551294 8.428941071104182 0 0 0
1802 9 1 2.095480914766095 18.62591964504089 10.951468200988476 0 0 0
4262 20 1 14.26030202208346 15.853206164917301 5.733581244852757 0 0 0
4486 21 1 10.14043789865453 18.23687842800814 5.675908219292309 0 0 0
4040 19 1 10.031178931900198 13.64929437172773 8.301315044458633 0 0 0
4042 19 1 9.977752314950436 13.571871913289128 10.842770796553907 0 0 0
4039 19 1 10.193710032148452 14.486504725081605 7.055153192241837 0 0 0
4041 19 1 10.264520137846498 14.409271599350935 9.628712796514437 0 0 0
4043 19 1 10.189553466526501 14.319089879989503 12.10344596000488 0 0 0
4265 20 1 13.654659915018112 16.324068625932494 9.520324349006168 0 0 0
4263 20 1 13.922703069008861 16.591022130504772 7.083904241107065 0 0 0
4267 20 1 13.413457218861177 16.41847712494386 12.087998845048528 0 0 0
4266 20 1 14.061341440859739 15.701521434306589 10.883120561512651 0 0 0
4264 20 1 14.39453136991442 15.797409675882363 8.288188300171427 0 0 0
4488 21 1 10.373277561433335 18.419712386191232 8.25762573439972 0 0 0
4490 21 1 10.366830811914026 18.599841334753325 10.830685625859314 0 0 0
4487 21 1 9.814588300521269 18.960317399895995 6.975215772832042 0 0 0
4491 21 1 9.638614785646318 19.239664433812294 12.00946328089189 0 0 0
4489 21 1 9.814999861626445 19.153982402066465 9.532710999986222 0 0 0
2471 12 1 6.519498555090262 25.892274590012285 5.835602284323497 0 0 0
2246 11 1 2.2350410749254275 23.24779010255178 5.556922374525613 0 0 0
11 1 1 1.5394311686448743 0.19694625973836155 12.260610149883442 0 0 0
2475 12 1 5.85637924871068 25.914426904896224 10.945393371434058 0 0 0
2473 12 1 6.245200094282304 25.929327656799924 8.438186570034418 0 0 0
2472 12 1 5.966425525242242 25.22919371813715 7.101198473723327 0 0 0
2474 12 1 5.531366264966611 25.209954391959723 9.631993944882053 0 0 0
2476 12 1 5.375341583673756 25.16697957528719 12.196257786132342 0 0 0
2026 10 1 6.144692965048522 20.436666144350372 12.425763728930505 0 0 0
2024 10 1 6.299216515795624 20.46409171457856 9.940461093001902 0 0 0
2250 11 1 2.05938986381766 23.266740576754156 10.576873648217795 0 0 0
2251 11 1 1.8919490743980218 22.40053349172407 11.83573571705167 0 0 0
2022 10 1 6.359561420631434 20.31155253660964 7.249887134283377 0 0 0
2023 10 1 6.178509745392528 21.12180515981793 8.592942133062012 0 0 0
2025 10 1 5.9724045333660705 21.317294982169038 11.160507655716232 0 0 0
2247 11 1 2.3124787288576374 22.360344009242638 6.790854617691947 0 0 0
2248 11 1 2.6427800405741806 23.092199082611597 8.102144794570044 0 0 0
2249 11 1 2.418318467860392 22.30977742284934 9.419242723470974 0 0 0
4932 23 1 10.181053305577246 22.805298495530565 5.530488057844542 0 0 0
5163 24 1 13.196473627338783 25.548225080505613 12.223282518859163 0 0 0
5161 24 1 13.252240695044357 25.34335038535108 9.61056616389822 0 0 0
5159 24 1 13.712704106155128 25.389722206970397 7.222651390178381 0 0 0
5162 24 1 13.70537625299224 24.849676229022148 10.992491541648562 0 0 0
5160 24 1 14.039974559361596 24.712963697980868 8.51963994808242 0 0 0
4712 22 1 14.07222447759134 20.56368618224031 8.42546773782409 0 0 0
4714 22 1 14.021509478259787 20.906582310017757 10.909639945317963 0 0 0
4711 22 1 13.668072379862473 21.26899284050373 7.106226969867123 0 0 0
4713 22 1 13.401508858057092 21.330970585265188 9.606306881229793 0 0 0
4933 23 1 9.782297255085595 23.49173941083767 6.849511357097066 0 0 0
4934 23 1 10.342050987857052 22.85768858714103 8.14743444113999 0 0 0
4935 23 1 9.498026803565265 23.24343809897216 9.380349345690687 0 0 0
4937 23 1 9.15233079680676 23.40671650283595 11.871954035996156 0 0 0
4936 23 1 10.125510747290841 23.180861093590313 10.736975515312855 0 0 0
4715 22 1 13.319439757413434 21.31691103827468 12.224461478919281 0 0 0
12 1 1 2.044405267893391 0.7686653969224843 13.55634358382099 0 0 0
239 2 1 6.140659040941264 3.2419339353944427 13.682626063284431 0 0 0
241 2 1 6.285962424583583 2.9851348208115898 16.13460299830479 0 0 0
240 2 1 5.371012372050267 2.716875826438098 14.915635339222025 0 0 0
242 2 1 5.572540750104671 2.747980579810897 17.439273063653165 0 0 0
16 1 1 2.351394836629681 0.24439774279911997 18.77413954404228 0 0 0
14 1 1 2.10936893234745 0.5989064973107951 16.144408046358215 0 0 0
464 3 1 1.4938599122676086 4.697815966861111 17.28742717145192 0 0 0
243 2 1 6.25349060816487 3.221782769551049 18.73316388140641 0 0 0
462 3 1 1.6866688724853067 4.630704085856926 14.774836093054784 0 0 0
463 3 1 2.3582665717619995 5.080139330494264 16.094899642873187 0 0 0
465 3 1 2.2059366843975368 5.046255710636235 18.591499073852887 0 0 0
461 3 1 2.523090996833198 4.89454943941184 13.533177367184448 0 0 0
17 1 1 1.6047263969247465 26.606799831322267 20.071646639664856 0 -1 0
466 3 1 1.3456937341861357 4.835819074951528 19.870711168902414 0 0 0
244 2 1 5.5163456009769725 2.6061155683316075 19.942497750400392 0 0 0
13 1 1 1.4813136494205201 0.14360719373097997 14.846796303250965 0 0 0
15 1 1 1.7214622704817013 26.70530001166486 17.397057001276526 0 -1 0
2924 14 1 13.987416830034098 2.1235963481767484 13.052448777236613 0 0 0
2700 13 1 9.841316616333295 0.6656797186405773 13.515753603606477 0 0 0
2925 14 1 13.191824318146784 2.4967690155146265 14.316828422319475 0 0 0
2927 14 1 13.070005850480229 2.229354933169556 16.90465506284118 0 0 0
2701 13 1 9.273139002409042 1.2198362581644406 14.851897201313271 0 0 0
2703 13 1 9.309405285417014 1.2033713943982767 17.494156129714973 0 0 0
2926 14 1 13.944840348976795 2.3403518789361497 15.620302401175621 0 0 0
2928 14 1 13.874782092419569 2.1981598863315925 18.15168330293191 0 0 0
2702 13 1 9.710959041864362 0.5119235632883223 16.136093522672386 0 0 0
2704 13 1 9.923264922334717 0.5211096478849151 18.704830531035604 0 0 0
3151 15 1 9.581347511077078 5.0654920595470205 18.676090956909636 0 0 0
3149 15 1 9.810430373022438 4.982771280649978 16.14586043320459 0 0 0
3150 15 1 9.357303235381718 5.739429786545227 17.36460303908506 0 0 0
3148 15 1 9.426382340349944 5.569075334256553 14.768083169167152 0 0 0
2929 14 1 13.08442674196224 2.5513285987332046 19.401345003977177 0 0 0
2705 13 1 9.055073557948518 0.5701409098329183 19.981061303473442 0 0 0
3376 16 1 13.297790851665706 6.490260450980551 18.86896302327352 0 0 0
3152 15 1 9.183902105368475 5.786587876190203 19.979736447663207 0 0 0
685 4 1 6.26572715266306 7.865213625721967 13.452591281352587 0 0 0
910 5 1 2.28477497358763 9.58189334224837 13.285723733803854 0 0 0
688 4 1 5.645621302104062 7.04850429418237 17.23553879912989 0 0 0
686 4 1 5.66593373302366 7.1470382916917305 14.668385859453334 0 0 0
912 5 1 2.1989852886590784 9.861558856734089 15.909804207433481 0 0 0
914 5 1 1.9651484614838641 10.13706414703312 18.434048044585953 0 0 0
687 4 1 6.203063225357206 7.784084419513241 16.008889578563135 0 0 0
689 4 1 5.974260538711275 7.73847388292854 18.542418761240363 0 0 0
911 5 1 1.7144380029862436 9.128559875482663 14.684194433022627 0 0 0
913 5 1 1.2940477593527 9.747355884849654 17.13510708096143 0 0 0
690 4 1 5.39169598086366 7.079269217886429 19.79802590252639 0 0 0
1134 6 1 5.774863995855699 11.61686576497218 14.504110483115 0 0 0
1136 6 1 5.416137131192665 11.765065999710984 17.09843124654506 0 0 0
915 5 1 1.5623301598446135 9.495040722956261 19.783638069610785 0 0 0
1138 6 1 5.232768425816679 11.972378373852155 19.70553946216452 0 0 0
1133 6 1 6.3654683895990125 12.341516886345708 13.282232282168271 0 0 0
1135 6 1 6.181097163043081 12.169749577077113 15.844582392928 0 0 0
1137 6 1 5.998419771234598 12.393023305142997 18.4157016729548 0 0 0
1359 7 1 1.582961748620377 13.876379960997122 17.319588095106205 0 0 0
3820 18 1 14.022472233103494 10.933750444129343 13.144561678972725 0 0 0
3374 16 1 13.762561790729894 6.446052210119571 16.29904692656271 0 0 0
3375 16 1 13.029478855511226 7.090663792938903 17.4318005436105 0 0 0
3599 17 1 9.533228405793134 9.85940530694854 17.118319494413623 0 0 0
3373 16 1 13.656717337479321 7.1588945162937545 14.996578597934633 0 0 0
3597 17 1 9.521070133488728 9.854836405328498 14.748483414789291 0 0 0
3598 17 1 10.418153191048297 9.428561379220715 15.89710320198828 0 0 0
3600 17 1 10.153368493726676 9.453198958027608 18.48415725264913 0 0 0
3824 18 1 14.0885012269341 11.232494653061226 18.308956709316163 0 0 0
3822 18 1 14.134397222140457 11.09159067457452 15.676366029596398 0 0 0
3821 18 1 13.547874176289437 11.66404161761711 14.370444937223212 0 0 0
3601 17 1 9.17629641206141 9.705411999527515 19.64928087435876 0 0 0
3377 16 1 13.002520642911874 7.443027001663255 20.053426412352685 0 0 0
3823 18 1 13.383677278363226 11.49313221392346 16.960297726252275 0 0 0
3825 18 1 13.345891139228806 11.711715010134274 19.563276173817144 0 0 0
1356 7 1 2.1985034662922787 14.191821098357087 13.46616614817557 0 0 0
1357 7 1 1.6473873712028335 13.70939773109486 14.803552739837347 0 0 0
1579 8 1 6.612857117981892 16.567838428488766 13.425801322546894 0 0 0
1360 7 1 2.3477115278955076 14.312695808201742 18.52312769474692 0 0 0
1358 7 1 2.368435839112742 14.2406502971801 16.013963966681693 0 0 0
1580 8 1 5.888902869770473 16.18068348362755 14.670784224329008 0 0 0
1583 8 1 6.4137250737857014 16.569305455039725 18.556586926454674 0 0 0
1582 8 1 5.628199695971901 16.28630555469557 17.29163277834834 0 0 0
1581 8 1 6.374627374259483 16.75485016372879 16.037962655501076 0 0 0
1807 9 1 1.9690541077308716 18.092117995460246 17.258261328017273 0 0 0
1805 9 1 2.1251362046692663 18.058679942435003 14.829539130902212 0 0 0
1809 9 1 1.6867456202828408 17.96828522778622 19.80004058632162 0 0 0
1808 9 1 2.1176933974741923 18.813470344860466 18.608702627956017 0 0 0
1806 9 1 2.2964363159653773 18.910250193467835 16.048257187523223 0 0 0
1804 9 1 2.3807619414817416 18.822701327387943 13.481513294316105 0 0 0
1584 8 1 5.687727271328914 16.299232120976335 19.892786200466176 0 0 0
1361 7 1 1.7098006189537749 13.846167179233298 19.843746888362848 0 0 0
4492 21 1 10.27672608481446 18.93806956319621 13.368069479913254 0 0 0
4044 19 1 9.97480086189367 13.394824552674537 13.357962764954896 0 0 0
4268 20 1 13.513734010060318 15.708027807037336 13.454667720705247 0 0 0
4046 19 1 9.982983053047015 13.635951731245283 15.89349642679625 0 0 0
4048 19 1 10.06068998580177 13.794897852247196 18.463341052520846 0 0 0
4270 20 1 13.38142100278644 15.66621854037866 15.939171528097756 0 0 0
4045 19 1 9.511725932381905 14.194450899900458 14.559292506772127 0 0 0
4047 19 1 9.671019457681101 14.413349572701692 17.12081126221098 0 0 0
4269 20 1 13.009852965264008 16.4377389883599 14.714409179445882 0 0 0
4271 20 1 13.24356017578224 16.459257113367837 17.27099309920427 0 0 0
4272 20 1 13.359077180485393 15.586428772564586 18.513712523262445 0 0 0
4494 21 1 9.975195650589052 18.72284041326991 15.945965164916494 0 0 0
4496 21 1 9.904603103425625 18.587248490541924 18.437165393818034 0 0 0
4493 21 1 9.521576088664352 19.393273978644554 14.63597268238453 0 0 0
4049 19 1 9.596538144124507 14.577739374751264 19.80687029072768 0 0 0
4495 21 1 9.49067266446766 19.35716225464616 17.216936988206175 0 0 0
4497 21 1 9.527752989473163 19.187114629940655 19.79653475185991 0 0 0
4273 20 1 13.313270621637981 16.275886215241883 19.89637150620892 0 0 0
2479 12 1 5.8868728626969276 25.569353559125855 16.0526924183158 0 0 0
2252 11 1 2.070247290029233 23.11075046221052 13.139118149751825 0 0 0
2477 12 1 5.917786883972828 25.63748298214882 13.529974823782684 0 0 0
2481 12 1 5.76408519657119 25.673697258489998 18.632931020659505 0 0 0
2480 12 1 5.308075944001037 24.99638876928145 17.38553650591047 0 0 0
2478 12 1 5.414703038313937 24.876120229200545 14.794407344576225 0 0 0
2027 10 1 6.001331358861823 21.256283503766692 13.713370505440333 0 0 0
2030 10 1 5.691036994789906 20.194420092528787 17.410683857927648 0 0 0
2028 10 1 6.191550578569302 20.433478508462628 14.941586132923419 0 0 0
2029 10 1 5.9485171633277405 21.18312172342204 16.22821056451501 0 0 0
2254 11 1 2.2531650288590575 23.020937172538524 15.813185151481125 0 0 0
2256 11 1 2.169826847555236 23.24845536518748 18.41370470141279 0 0 0
2253 11 1 2.1586646125324203 22.269799002349647 14.430226854801187 0 0 0
2031 10 1 5.9162423385858345 20.936333070908162 18.726781459127476 0 0 0
2255 11 1 1.823933342244864 22.429136030492597 17.163201557349016 0 0 0
2482 12 1 5.41369304412795 24.929739481748985 19.94061581723932 0 0 0
2257 11 1 1.827515794662775 22.466572484304933 19.694059655986763 0 0 0
2032 10 1 5.539821231079658 20.051994835429017 19.912600186382715 0 0 0
5167 24 1 13.105537386964693 25.213776219053955 17.379595219750634 0 0 0
5165 24 1 13.28962667388449 25.52312343299441 14.765291036811679 0 0 0
5164 24 1 13.50764872990035 24.744211278050326 13.513982875067128 0 0 0
4938 23 1 9.87646464574894 23.57804307191312 13.224561906940517 0 0 0
4716 22 1 13.703558785281517 20.64077128630354 13.486320324075912 0 0 0
4718 22 1 13.612365496025609 20.554308522020847 16.073412706810746 0 0 0
5166 24 1 13.728472567991577 24.80721344607674 16.04594513167579 0 0 0
5168 24 1 13.846717870487298 24.91601021084512 18.670664305913427 0 0 0
4720 22 1 13.671260224156342 20.593550988667353 18.650799375826736 0 0 0
4717 22 1 13.088596761360273 21.199460403487887 14.774777068614124 0 0 0
4941 23 1 9.23159471612532 23.781178703820206 16.866035981451056 0 0 0
4939 23 1 8.899942209401425 23.49841160629759 14.368585327076037 0 0 0
4940 23 1 9.80983844437501 23.381098669124945 15.549646304165687 0 0 0
4719 22 1 13.124042336096307 21.159118991001524 17.381832661951993 0 0 0
4942 23 1 9.895035152336474 23.280934992200777 18.100894907935697 0 0 0
4721 22 1 13.112898466369902 21.229915677275645 19.923492398739924 0 0 0
5169 24 1 13.083656334060457 25.14616612871546 19.92789673042464 0 0 0
4943 23 1 9.09711786017325 23.45576994763681 19.363147303915 0 0 0
247 2 1 5.714130731031828 3.212923967703361 23.848623397253014 0 0 0
245 2 1 5.970730711039695 3.248475378557755 21.278052507697893 0 0 0
248 2 1 5.198367895505255 2.639881998852744 25.126448681972974 0 0 0
246 2 1 5.316032057455854 2.6763681779010113 22.535748161981463 0 0 0
18 1 1 2.211773504909996 0.2877925079659334 21.323088524625415 0 0 0
22 1 1 1.6623535122418498 0.9069226852700265 26.255071346287007 0 0 0