LAMMPS data file via write_data, version 23 Jun 2022, timestep = 11112117

8487 atoms
2 atom types
8471 bonds
3 bond types
8455 angles
3 angle types
8439 dihedrals
3 dihedral types

0 36.89775039 xlo xhi
0 26.67072 ylo yhi
45.55611454337972 191.1954898566075 zlo zhi
0 4.582131861072659 0 xy xz yz

Masses

1 14
2 15

Pair Coeffs # lj/cut/omp

1 0.0914 3.95
2 0.1947 3.75

Bond Coeffs # harmonic/omp

1 449.5 1.53
2 449.5 1.53
3 449.5 1.53

Angle Coeffs # harmonic/omp

1 62.0967 114
2 62.0967 114
3 62.0967 114

Dihedral Coeffs # opls/omp

1 1.411 -0.271 3.145 0
2 1.411 -0.271 3.145 0
3 1.411 -0.271 3.145 0

Atoms # molecular

6565 52 1 0.8277906944569275 1.7718288066219188 50.46373448849062 0 0 0
627 6 1 15.06215333301484 8.309401714705075 56.98885441392869 0 0 0
879 12 1 16.890119706414907 12.734212113140552 57.37345954250102 0 0 0
7243 11 1 0.540876056179729 9.382793223977302 55.667422630178564 0 0 0
653 4 1 6.325941777871822 8.176310034442071 50.53967046824656 0 0 0
2890 24 1 10.369152539723624 8.895575468816196 45.90826356424769 0 0 0
4310 32 1 18.279437612570188 0.5199265073101388 50.08232178114352 0 1 0
7572 58 1 1.9413051796507825 14.630828443060304 56.4996221981134 0 0 0
532 5 1 8.072718073956693 5.881145825602389 52.93347406300272 1 0 1
871 12 1 10.608144656789275 12.758497669531963 51.275889889317995 0 0 0
301 13 1 7.355467334913955 19.299961642546727 52.25532178870348 0 0 0
2338 17 1 12.167654020870538 1.2434663602890437 47.20553989817321 0 0 1
2789 30 1 14.521188665986651 5.261907433387904 50.911459675558554 0 0 1
6569 52 1 3.4153422657600965 1.327236925348504 53.682861337990985 0 0 0
7010 58 1 1.262727595081546 6.577214012741473 51.069019381551584 0 0 0
3114 59 1 16.68259355604949 11.952895081360973 47.84596272955446 0 0 0
4305 32 1 15.532899562597729 24.328759676102766 46.15220796521609 0 0 0
7531 14 1 0.1298314528115289 10.701960174026329 47.4213302946093 1 0 1
2337 17 1 12.140842593799178 1.386974853398442 45.6376216903267 0 0 1
3845 28 1 13.894068330128816 17.62146066200453 48.094862739824094 0 0 1
652 4 1 4.8138598194500535 8.550655861419717 50.30526086908536 0 0 0
1283 7 1 5.826343914338272 13.716778417035435 51.07630912868705 1 0 1
7494 60 1 4.083535331467057 16.52173084460368 53.376735837952225 0 0 0
203 1 1 8.646910262862956 0.8133241915781718 53.92164138801511 1 0 1
3870 31 1 16.618999976293054 19.684011915248398 46.26524721803739 0 0 0
8093 63 1 4.9797380239858064 20.361301605201884 55.842397225660015 0 0 0
870 12 1 10.903828931405686 11.329554850553732 50.906214405959766 0 0 0
3528 26 1 13.6330214627188 13.2825024719224 48.91750989485159 1 0 1
6319 27 1 1.261895730982312 0.42926008665407733 56.66343693320337 1 0 1
2785 30 1 12.028884075705223 5.737428270534275 47.36122967388398 0 0 1
7113 60 1 4.342875151422222 15.382544483757462 54.19134592922689 0 0 0
2895 24 1 14.022087162372786 9.421771896727247 50.264506808277346 0 0 0
3628 18 1 18.188958337125356 19.68824970280361 53.87983032210255 0 0 0
2899 24 1 17.92511023554923 11.061419186062906 52.81177675895814 0 0 0
7242 11 1 0.35164844149546126 9.10981096991919 54.161742391189804 0 0 0
1322 29 1 17.175096583633337 16.386485418079733 57.07548486464929 1 0 1
200 1 1 6.6886794055844065 26.614898649217714 52.13434484510681 1 -1 1
201 1 1 7.831744004011486 0.6334982801001043 51.595833457281124 1 0 1
7883 16 1 1.9518133796646737 17.787813456575922 56.21983918386013 0 0 0
6568 52 1 2.2957819785712683 1.528788216189884 52.729793501227846 0 0 0
6562 52 1 0.8342703065619121 2.679510342512404 47.176335895566936 0 0 0
8212 13 1 5.4778368802954045 17.032442613125674 49.86148329902086 0 0 0
524 5 1 3.233416811187389 4.032741884318876 45.78885466728977 1 0 1
197 1 1 4.008208860358035 0.8269036676796131 49.47740550698822 1 0 1
591 9 1 12.034982876848796 8.347633841058446 53.76233715530333 0 0 1
868 12 1 9.391750803367513 11.878565027648289 49.31547984152345 0 0 0
6766 57 1 2.2483375444915 6.215114029924825 58.10842970847763 1 0 1
872 12 1 11.755768559492855 13.170743224941837 51.98202071196185 0 0 0
2894 24 1 14.067675496123371 10.010864250011487 48.87199853042146 0 0 0
2461 13 1 11.098078651264727 18.601929774519203 55.36536171077433 0 0 0
8096 63 1 6.0644769562063665 21.62587186230669 57.76582562121242 0 0 0
8090 63 1 3.068730791207623 20.411156539755165 52.72209482602718 0 0 0
584 9 1 7.651551429723954 7.332274457045315 46.67088733518589 0 0 1
2345 21 1 16.398797077051828 0.8128727089631774 52.77518464616818 0 0 0
3627 18 1 17.723951790875887 18.310176324168506 53.787963898572336 0 0 0
1642 15 1 13.375238644492828 21.94160984800857 54.61617994549537 0 0 0
3526 26 1 12.1097250556607 13.062643906091457 47.13326977233068 1 0 1
8094 63 1 6.3524929661105 20.908820761397838 55.46771498681184 0 0 0
198 1 1 5.175732708709326 1.005003418402983 50.452668984720425 1 0 1
533 5 1 8.05449996097414 6.284562687180188 54.40388631664841 1 0 1
194 1 1 4.361757833511109 0.5668449472630519 46.73482413224535 1 0 1
5590 60 1 8.69380685321084 18.25734964423136 59.3807091385727 0 0 0
8360 43 1 0.37645136978802746 21.73090416563321 54.692194100801856 1 0 1
442 3 1 7.029545602347859 2.7310240969177126 47.38285678501012 0 0 1
2896 24 1 14.724243022100367 10.579531084249794 51.04789653854403 0 0 0
1324 29 1 17.643240229899792 16.970565132453817 59.30692167012137 1 0 1
1876 51 1 4.28074141320451 22.123789772473877 47.121091777190244 1 0 1
1315 29 1 11.394996268372795 16.399823942868704 51.18909911499091 1 0 1
4085 6 1 14.387931055594912 21.91465867222198 47.74393544764644 0 0 0
594 6 1 18.33951691134296 7.536196933390452 59.19517143237979 0 0 0
1405 13 1 4.24542667558358 17.691829547673116 47.53912703153983 0 0 0
1286 7 1 8.806593174616618 14.185144471316582 53.281041009403474 1 0 1
2567 20 1 16.488336609751553 2.7062632236724427 47.172820887436764 0 0 1
2343 17 1 14.754937441422408 1.9303244417037368 51.44742021134468 0 0 1
8091 63 1 4.435193377608026 20.35539523083411 53.414813219338946 0 0 0
2793 19 1 17.378839217303636 5.837202325976518 53.83768188857972 0 0 0
7016 58 1 5.877763737010259 8.640326108497494 55.297530500833744 0 0 0
199 1 1 5.548141808746356 26.38949358472289 51.0214671963633 1 -1 1
1644 15 1 15.286228834249307 20.868786011715308 55.49161514960832 0 0 0
8363 43 1 1.5086694085446875 22.533881519158346 58.30090009047722 1 0 1
6320 27 1 2.5801556816546736 26.531719566197815 56.45804824416709 1 -1 1
6572 52 1 5.583079167213879 3.4553296400948037 55.59337857604207 0 0 0
8085 63 1 0.3810145231938067 21.645734335464347 48.621810262490555 0 0 0
7019 58 1 7.088744691146602 7.528627187215574 58.48916738432047 0 0 0
2787 30 1 13.82122819158282 4.722518851648948 48.3181379066713 0 0 1
3115 59 1 17.82355416861762 12.946953933566167 47.94208540973959 0 0 0
8482 50 1 0.5400909803413608 24.381680641628435 49.84743083169984 0 0 0
8092 63 1 3.9383173283309914 20.499481910619235 54.822026530261084 0 0 0
6575 52 1 7.714599753484974 3.1235103496257755 58.354097725311256 0 0 0
1369 13 1 12.748382325066427 18.37288487708363 57.40224104607351 0 0 0
3626 18 1 16.893904901933805 18.15636173956908 52.530168956646115 0 0 0
4812 50 1 5.132807455406319 23.801550652261188 55.147887783791234 0 0 0
651 4 1 4.654308710320804 9.593893646259891 49.220304023746266 0 0 0
448 22 1 11.54433751882309 3.843830071011912 51.657968263392156 0 0 0
629 6 1 17.49975017255734 7.886209342065028 57.16482085272075 0 0 0
1879 51 1 6.060325293409443 21.96517925989215 49.37995294637151 1 0 1
1639 15 1 12.418334664924556 21.09121027936714 51.30977643927224 0 0 0
656 4 1 8.093679642604442 10.688294972767329 53.09788637401644 0 0 0
869 12 1 10.563798149851769 10.926843532681358 49.43284146884018 0 0 0
4082 6 1 11.860681105056248 23.319150330395633 46.52006513268756 0 0 0
1282 7 1 5.394323801230512 12.475658366472658 50.23201545147779 1 0 1
269 60 1 1.142476282356201 15.936190948146175 48.74676482590346 0 0 0
2784 30 1 11.907003884580782 4.812419958435473 46.154822422898015 0 0 1
7971 60 1 1.4585510477335604 14.931562131462677 50.85820478523077 0 0 0
2788 30 1 14.786189277857083 5.009252491673929 49.419172096179864 0 0 1
1636 53 1 7.326842331199545 20.25404277387293 45.722126542648446 0 0 1
7544 14 1 7.877064235157103 13.880760966824582 58.31264474126016 1 0 1
878 12 1 15.406743979636753 12.21310379344032 57.12626818219472 0 0 0
1182 50 1 6.442048023900016 24.469915183384074 55.294557623588595 0 0 0
7542 14 1 6.2940238659666905 12.448930233065298 57.278067749037355 1 0 1
7539 14 1 4.470611491464484 12.017148647452068 54.89225536180941 1 0 1
1371 13 1 10.736641385088882 19.43160673452345 56.6119100879792 0 0 0
228 22 1 13.683111041436314 3.5091286045549617 54.99065601048629 0 0 0
1878 51 1 4.559806812426265 21.609461042243176 49.48009106505273 1 0 1
4092 6 1 17.23047313771373 23.828357991124765 54.62348854708463 0 0 0
1877 51 1 4.325415497717373 21.011458163451675 48.070733680043276 1 0 1
881 12 1 18.2699627591081 11.434392661666685 58.90994228444595 0 0 0
530 5 1 6.629648890648473 3.9970784197576905 52.04721588753087 1 0 1
6987 57 1 1.2400368374624593 3.7452140644418437 55.465761315202144 1 0 1
3112 59 1 15.709552631376308 12.660442941812727 45.79569761884025 0 0 0
1310 29 1 6.921732219209554 15.15023049846512 47.29250625240296 1 0 1
6324 50 1 4.837473706522223 1.007833852320233 59.38602799365723 1 0 0
1280 7 1 4.1814986834766925 13.788264399435457 48.58902886220758 1 0 1
1319 29 1 14.305948751359841 16.322813927115625 54.821723685699716 1 0 1
1293 7 1 13.168325052020217 13.915827858782238 59.09809462633061 0 0 1
882 12 1 18.35481849621201 12.747009897052475 59.47744649902653 0 0 0
3625 18 1 16.30625179167141 19.444719041117548 52.154470826756956 0 0 0
3846 18 1 13.99951034652326 18.625275115162164 49.26201796474853 0 0 0
1288 7 1 8.97522400682087 15.406184269610536 55.61489253706613 1 0 1
1279 7 1 3.8527314329158044 14.188455414921814 47.130246439175124 1 0 1
1318 29 1 13.93563577799891 17.407749988427682 53.82230827051363 1 0 1
207 1 1 11.160732601273063 2.683993038521473 56.89128286699962 1 0 1
227 22 1 13.13170447276851 4.67558493181694 54.317872918309874 0 0 0
1294 7 1 13.555534705606158 15.294567245710505 59.3255903229806 0 0 1
2932 13 1 10.187131846370859 18.707706198789182 54.16108733052138 0 0 0
195 1 1 4.989471912783531 26.18366928925493 47.61145963667024 1 -1 1
3902 13 1 8.722447553045473 18.988775984093284 54.08248778998252 0 0 0
648 4 1 2.548706274752906 8.493152806013057 46.90403198687279 0 0 0
1890 51 1 12.501835820845708 24.175500477334783 58.673589511508894 0 0 1
446 22 1 10.681737613867018 2.97312666426237 49.39774717546644 0 0 0
660 4 1 9.839031350974428 11.23594746295777 56.64969858934411 0 0 0
865 12 1 7.127241154133149 11.188189156934103 46.42039791693117 0 0 0
527 5 1 4.168000293769783 5.133039241554485 49.19813982597513 1 0 1
204 1 1 9.413415436051933 26.389292958962557 54.64730425464757 1 -1 1
6570 52 1 3.916350947868738 2.629401278148235 54.065193737878076 0 0 0
7011 58 1 2.599360384146996 6.842065813166325 51.7307888954745 0 0 0
2897 24 1 16.00892723336694 10.197252218281935 51.78203309162874 0 0 0
6358 50 1 10.02845320856959 0.18348280321626667 59.48075881536155 0 0 0
4090 6 1 17.252568907195812 23.98185355488627 51.95362693730484 0 0 0
529 5 1 6.460359844895069 4.887788556408817 50.75045341493034 1 0 1
7012 58 1 2.862657646346819 5.9585066906863355 52.87876410040375 0 0 0
3606 34 1 18.357237267626125 16.894667938068586 48.67961381313083 0 0 1
2340 17 1 13.863899559948385 26.474396498309442 48.56252550914782 0 -1 1
526 5 1 4.629965862642777 5.247589090634945 47.73574935119604 1 0 1
8088 63 1 1.5989155513145645 20.249597397098913 50.91322321089361 0 0 0
7533 14 1 0.7254547784507047 12.017059062337262 49.313126815278096 1 0 1
911 4 1 11.17617883812329 10.596615447253189 56.31613176449202 0 0 0
8484 50 1 2.3440762481410857 23.64103135624219 51.73051873794512 0 0 0
3842 28 1 11.469444438857572 17.16871873940882 46.177800291971316 0 0 1
3871 31 1 17.191829250917866 20.18219992326858 47.579049256095445 0 0 0
587 9 1 9.536121225509849 7.269906194456444 50.04466475096338 0 0 1
1637 53 1 6.840850693955304 19.186082650175223 46.58912193570338 0 0 1
8098 63 1 7.760362191895894 21.605912626705642 59.21021962369345 0 0 0
1406 13 1 4.634961250449165 18.01866294392118 49.09198283280004 0 0 0
209 1 1 12.681570159375372 3.019550721590167 58.682395130995445 1 0 1
225 22 1 11.69738549580487 3.234133478425166 52.96711698777437 0 0 0
866 12 1 8.20703945347541 11.873471382142242 47.21984531694784 0 0 0
4227 4 1 11.571130657866005 9.885042317997982 57.57706479228658 0 0 0
2802 22 1 17.98024833410897 8.708318132115517 48.22707248364556 0 0 0
2209 13 1 7.000638233830933 18.897348094901563 50.78888677249023 0 0 0
650 4 1 4.8874802916804505 9.198679507369183 47.828760638110985 0 0 0
1291 7 1 12.529221977846957 14.192177066547211 56.75288303540886 1 0 1
8481 50 1 0.5119565058684805 24.940634784888335 48.52416121266573 0 0 0
531 5 1 7.764512020302523 4.498234419027401 52.91088422788206 1 0 1
7532 14 1 0.8628175746886222 11.965546552268512 47.83158157992015 1 0 1
4753 60 1 6.942395418074968 16.722933998492092 58.521973369600005 0 0 0
230 22 1 14.974594190863023 4.610948695889111 56.541699769877425 0 0 0
7571 58 1 1.2768812875673818 14.42046811374684 55.271056807399646 0 0 0
535 5 1 9.725809742835935 6.690125624416985 56.080955347747164 1 0 1
1313 29 1 9.907901669177837 15.5862256339176 49.50615506901875 1 0 1
193 1 1 3.063854555449021 26.42735004157279 46.483038875518474 1 -1 1
3532 26 1 17.239939318580234 14.811365325734648 51.1449235557155 0 0 1
1321 29 1 16.06413914877056 15.736412355492549 56.47747748554354 1 0 1
5831 60 1 6.003421613873852 16.479214291001423 57.413429461525546 0 0 0
1887 51 1 10.1257482167376 23.42401821511604 55.707478877265636 1 0 1
3844 28 1 13.34605704147327 18.359155486058572 46.94204062260645 0 0 1
590 9 1 11.175060602947804 8.129200083001036 52.52348317244255 0 0 1
1922 18 1 16.09621156317931 25.552718484438127 57.74237020763989 0 0 0
8099 63 1 8.9966467705534 22.369857905855195 59.52837712328225 0 0 0
1923 18 1 17.467786951019487 25.439846930064654 58.52594400293986 0 0 0
1002 60 1 2.7335059228263963 16.222675588399632 52.62427234994555 0 0 0
8089 63 1 2.7115354983476787 19.413123925646016 51.67225175743539 0 0 0
4086 6 1 14.626469092040475 22.41048779793422 49.159879278279476 0 0 0
444 22 1 9.088275027069562 3.9237274463323555 48.32650323945568 0 0 0
630 6 1 17.15892975156867 8.25117902651965 58.55629973334121 0 0 0
6318 27 1 0.5239807932627343 0.036783184993358864 55.31893552341597 1 0 1
8405 50 1 6.3087066288220806 25.489632483415207 57.40737584363132 0 0 0
659 4 1 8.930351292105845 11.05575297341723 55.51598704333265 0 0 0
4088 6 1 15.227626402033177 24.170401619504695 50.59311304290293 0 0 0
202 1 1 8.953058438474226 0.6393827068417947 52.41352594296295 1 0 1
4087 6 1 15.690206606993486 23.344168513715232 49.39290830286684 0 0 0
7543 14 1 7.330702115798133 12.485233815908293 58.30184167961716 1 0 1
1983 60 1 5.720260221854566 17.364962417226117 55.07274195249583 0 0 0
4083 6 1 12.154612034964565 22.647221113280093 47.86285825486749 0 0 0
1314 29 1 10.827917926553923 16.728874267544636 49.773189933652 1 0 1
3529 26 1 14.804880266337156 14.044983563735858 49.40805196216817 1 0 1
6633 50 1 9.062198307028087 25.728489981786996 60.05963023405487 0 -1 0
5780 13 1 6.154350665371502 17.726073620491608 51.01026988764251 0 0 0
7014 58 1 3.879389603733898 7.107247038007993 54.910987192480526 0 0 0
742 13 1 8.619807583311728 18.64736435164246 52.58806729675689 0 0 0
1316 29 1 12.267078127211828 17.322282191526682 51.93831362201597 1 0 1
658 4 1 9.150240710819503 9.621587636596843 54.96000790168856 0 0 0
1880 51 1 6.032225248229765 23.20736230564314 50.166042301135114 1 0 1
4478 50 1 6.119783903480863 25.726568247275097 55.92233158061619 0 0 0
8364 43 1 2.8668030775037177 22.651517714047422 57.808369085330355 1 0 1
1670 15 1 7.988625452077801 18.960458048822414 47.56329233434969 0 0 0
1647 15 1 17.190420646465522 21.97349049950721 58.494309957847705 0 0 0
3848 18 1 15.563036287540525 19.590243713397115 50.750331107222124 0 0 0
1920 18 1 15.218234091783168 26.257098247555383 55.58065407047435 0 0 0
1882 51 1 7.169325646001557 22.454646713691254 51.86257957307095 1 0 1
536 5 1 10.987634644724439 6.419262523084757 56.94149861858739 1 0 1
7570 58 1 1.1067628591013001 12.83967754012762 54.841253367927415 0 0 0
2341 17 1 13.535837845019524 0.7119591552285743 49.68409775325538 0 0 1
6566 52 1 1.3462979389157241 2.998310996134128 51.145910217470146 0 0 0
1915 18 1 12.294822327363608 24.583145800345466 52.133559347851225 0 0 0
3847 18 1 15.317854287810068 18.33238090994825 50.00680960143461 0 0 0
8097 63 1 6.742520633020123 22.60046221349165 58.698924162249796 0 0 0
1914 18 1 11.774518242081493 24.60006335408041 50.633630831121174 0 0 0
2570 55 1 17.786094783981582 3.929895923683393 49.50072890571476 0 0 0
875 12 1 14.481052852252745 12.860035581459737 53.44688057972297 0 0 0
583 9 1 7.2012191058071275 6.188328888112344 45.889563695007965 1 0 1
7009 58 1 1.183017121759518 6.971449722976994 49.57757057512485 0 0 0
1910 18 1 8.647586130300363 25.583564190128147 47.46955502607198 0 0 0
2792 19 1 16.447329473346826 5.594254119880977 52.70322364359235 0 0 0
1909 18 1 8.711430573368272 24.051542137418114 47.67092901862856 0 0 0
7575 58 1 3.043607426750966 15.105222889743798 58.44358920559582 0 0 0
7540 14 1 5.817550383202109 12.397080228603006 54.69649148791406 1 0 1
1646 15 1 16.512554492553573 21.764357991063655 57.12867380813934 0 0 0
8361 43 1 1.3044285263729165 22.318848424502903 55.77948940101426 1 0 1
2339 17 1 13.529917412762476 0.5371872626808918 47.24031555881427 0 0 1
528 5 1 4.929959146345288 4.417364577660916 50.15474237836628 1 0 1
874 12 1 13.171384052402171 12.075194036268 53.67637390773214 0 0 0
588 9 1 11.01448392336342 7.194116088418923 49.98171509682628 0 0 1
1888 51 1 11.173324441669402 23.200132566823775 56.7249863590059 0 0 1
6765 57 1 1.3916230265633678 5.683120881807948 56.958149641794975 1 0 1
3527 26 1 12.773900183802786 14.080781399728004 47.98076409521313 1 0 1
2344 21 1 16.10906848520965 2.0877349199602224 52.013409902204366 0 0 0
4089 6 1 15.827723102956348 23.61663534326725 51.815170469518165 0 0 0
4306 32 1 16.793281432408342 24.94524590658715 45.60378467839943 0 0 0
589 9 1 11.436629538182808 7.128408086954004 51.433822881546625 0 0 1
2786 30 1 13.41997545296677 6.066075928128409 47.79392042886325 0 0 1
1320 29 1 15.31183835246076 16.857795433907516 55.84748601072885 1 0 1
1309 29 1 7.369001288157995 15.747036502251456 45.93579497637635 1 0 1
7247 11 1 4.06028508462656 9.87928099632487 59.05963850101637 0 0 0
654 4 1 6.808826250804756 8.84228901488125 51.81608931087953 0 0 0
441 3 1 7.77898838357753 1.899166029429241 46.345383391397796 0 0 1
626 6 1 13.95033778019756 7.921968257934924 56.10957801533628 0 0 0
1311 29 1 8.158632569797202 14.849118893392834 48.056283664718414 1 0 1
586 9 1 9.050705120253722 7.586944847601422 48.58536755199055 0 0 1
538 5 1 12.54230276162856 6.601466136653509 58.85457171614314 1 0 1
1889 51 1 11.20998371535155 24.306756053687053 57.75702234946327 0 0 1
1919 18 1 13.854164654273237 26.016118773321264 56.24917809364056 0 0 0
6321 27 1 3.4021210962485218 0.5296391311093639 57.4879023813275 1 0 1
1641 15 1 13.722503745962666 21.033332349592037 53.41976009772729 0 0 0
873 12 1 12.244671829164005 11.900276124584906 52.576103072211104 0 0 0
196 1 1 4.161537416533289 26.10096539963072 48.9192873631922 1 -1 1
2346 21 1 17.566204998108972 0.8241737713057579 53.58600063231856 0 0 0
7008 58 1 0.8035596990053283 5.63934922690885 48.8962897088384 0 0 0
3843 28 1 12.838103090724184 17.608095797000026 45.752924811499824 0 0 1
1672 15 1 9.98018974029494 19.8550267200513 48.25509388784855 0 0 0
6577 52 1 9.177728891261578 4.569544402988896 59.26363167399351 0 0 0
3530 26 1 14.515305229897603 14.934824120721089 50.50806445469302 0 0 1
1317 29 1 12.785543681191676 16.63389809325073 53.14641593171375 1 0 1
534 5 1 9.414698243119414 5.832717959425239 54.92544548648249 1 0 1
2192 60 1 9.768718818565652 17.29274180237378 59.082052579885826 0 0 0
1638 15 1 11.142771763991048 20.43007360644372 50.687929299249696 0 0 0
1289 7 1 10.254469283480422 15.345875393230717 56.27004011009217 1 0 1
3533 26 1 18.10499078476978 14.264029927935999 52.37190429216427 0 0 1
2799 22 1 16.910738320411568 6.790063560984815 46.55397938577361 0 0 0
2800 22 1 16.082435116073526 7.907803246898597 47.12895119714108 0 0 0
8087 63 1 1.2056505322480664 19.592953023445727 49.57627180579102 0 0 0
1370 13 1 12.086512892493094 19.764515429898125 57.323197740881184 0 0 0
1883 51 1 8.24855127018279 23.435516783949417 51.52513580673073 1 0 1
1918 18 1 12.931197909615285 25.557145050920948 55.061828188957676 0 0 0
7886 16 1 3.352492320811123 19.16188451197218 58.28468112919405 0 0 0
1674 15 1 10.020997932288928 21.336499888961658 50.227463297245635 0 0 0
1287 7 1 9.544161259410608 15.094204717117439 54.15697631536578 1 0 1
1875 51 1 2.9801116921448236 22.78010941089799 47.067441216065085 1 0 1
8095 63 1 7.1019512512913385 20.984301184793207 56.80486437743859 0 0 0
1284 7 1 7.303333484341534 13.885751419696376 51.11942869147481 1 0 1
271 60 1 7.516619932270484 18.149304910838776 58.53324800429045 0 0 0
6576 52 1 8.567923823337734 4.147429528579253 57.94219705096537 0 0 0
1886 51 1 10.075961633026864 22.234094660664685 54.776573276144454 1 0 1
1285 7 1 7.772410180019511 14.789673339097844 52.28472125210047 1 0 1
525 5 1 3.9982862077889214 3.9500090794065033 47.17934818704433 1 0 1
8487 50 1 4.3116200267573435 24.740885048561093 54.09202252466677 0 0 0
649 4 1 3.7035869582151677 9.514585563028715 47.01918391454862 0 0 0
1881 51 1 5.859222568638229 23.016742242905714 51.53338714053696 1 0 1
205 1 1 10.052616721800995 0.44069331505361314 55.82652846612804 1 0 1
1648 15 1 18.073678551005933 20.91119119693875 59.068543519358684 0 0 0
537 5 1 11.118763006656229 6.791316776221631 58.453092531542715 1 0 1
3605 34 1 17.49459465978091 16.85920249285739 47.37790183063006 0 0 1
4307 32 1 17.723979276428178 25.20880701294174 46.80921029066287 0 0 0
4091 6 1 17.7895435107448 23.42327622701164 53.30881171472699 0 0 0
3534 26 1 17.896430507753433 15.0435127347958 53.60555272078901 0 0 1
2791 30 1 16.081103626992302 6.964294740543524 51.97666854351095 0 0 1
2801 22 1 16.628470273382995 8.189688660151322 48.56955263930094 0 0 0
6567 52 1 2.4992264500045924 2.8505757705593417 51.98556333624806 0 0 0
1323 29 1 16.75889690689972 17.342123988621847 58.16075602547033 1 0 1
2123 21 1 18.005570801319976 2.126029846053226 54.177897967394074 0 0 0
7538 14 1 4.014236614889373 11.955315221430522 53.48415026411869 1 0 1
3872 31 1 18.338945138997925 21.11366867826444 47.37297451174532 0 0 0
2900 24 1 17.846916098080975 9.813536122464928 53.60204031881257 0 0 0
5015 4 1 11.4105759850835 10.516050864762104 58.95270355337382 0 0 0
3531 26 1 15.75993135510903 14.98145201459653 51.50488584914077 0 0 1
1281 7 1 5.148885458654627 12.646482617352035 48.68983655361796 1 0 1
6573 52 1 7.063556568108785 3.3317959675593944 56.00117174420182 0 0 0
1917 18 1 13.639411734619936 25.96449923581916 53.72073731545514 0 0 0
5141 60 1 4.99305258437106 16.057133425756753 55.44907352158023 0 0 0
443 3 1 7.775752626328189 3.206049193380468 48.510387398517956 0 0 1
2566 20 1 15.993955506083449 2.353243738944141 45.871672158923474 0 0 1
5776 60 1 1.9531351672779809 16.035239294190188 49.95673641791457 0 0 0
6322 50 1 2.7547670177854098 1.6291255082927665 58.110532374629905 1 0 0
4308 32 1 17.041220292502366 26.072484554960308 47.979230800398405 0 0 0
7537 14 1 3.7784119783130126 10.429969960696084 53.06375183891765 1 0 1
8362 43 1 1.118014935885398 21.563298739179924 57.10963574000644 1 0 1
1916 18 1 12.629926188708497 25.9371699257934 52.55103163026868 0 0 0
8485 50 1 2.267179393231281 24.800872315738868 52.79453997999176 0 0 0
7015 58 1 5.02956901470199 7.414169687915109 55.68345235949767 0 0 0
593 9 1 14.355684983988604 7.7954864374329444 54.68420182531603 0 0 1
6767 57 1 2.8439448624001136 5.060095003471549 58.76110206135871 1 0 1
2342 17 1 14.793496971321286 1.5052874256337792 49.97539842580868 0 0 1
592 9 1 13.4844748403318 8.696657577795643 53.81721894571156 0 0 1
229 22 1 15.042010765415391 3.465141280319253 55.58399205851342 0 0 0
226 22 1 11.808556902690954 4.361933973039012 53.90166866686506 0 0 0
2892 24 1 12.626255288482641 9.94501506933605 46.571063143044995 0 0 0
1367 13 1 13.148242521530163 18.89461565585954 59.79956689662693 0 0 0
2893 24 1 13.124447227539573 9.307307515781787 47.809807680927854 0 0 0
7017 58 1 6.603501060357162 8.845669081819247 56.558937746201536 0 0 0
1312 29 1 8.734644359262383 16.125412315038947 48.614930284854175 1 0 1
6574 52 1 7.064159840898587 2.4717302492507214 57.203554638124686 0 0 0
8365 43 1 3.158679683384815 23.945801979882184 58.451087444480116 1 0 1
628 6 1 16.39351135493472 8.329981662699947 56.28464243710927 0 0 0
540 5 1 14.35888399736196 6.19359560688185 59.91630641646888 1 0 1
7021 58 1 8.624791727498387 9.020428683052746 59.904418023040094 0 0 0
4084 6 1 12.925636428872224 21.479113556140046 47.56706759565256 0 0 0
233 22 1 17.22792749229247 2.885220707650163 58.44927763329339 0 0 0
880 12 1 17.52606812710408 11.496656982673242 57.614159026419884 0 0 0
3525 26 1 11.159208591641722 13.864199642362253 46.28126705845408 1 0 1
7541 14 1 6.484491629149655 13.054902177521287 55.907057469596275 1 0 1
6988 57 1 2.0964482974430116 4.353937745117366 56.52456591301845 1 0 1
585 9 1 7.9037211956689255 6.8677449682708165 48.063975993540865 0 0 1
6986 57 1 0.3735776348300024 5.025623862603383 55.12994785462761 1 0 1
1640 15 1 12.391881098554977 20.887033579496215 52.76099006856747 0 0 0
1912 18 1 10.34263698230913 25.522447852899706 49.0446859230949 0 0 0
1673 15 1 9.389175746515795 21.02766501695262 48.84778060110624 0 0 0
1911 18 1 9.297607469367193 26.371522041512954 48.479058905178455 0 0 0
1368 13 1 13.71411986193971 18.42654785199557 58.49204715928427 0 0 0
7885 16 1 2.221078705680007 18.17109106994021 58.5210969890045 0 0 0
7536 14 1 2.5143021693617187 10.450219809945512 52.31716071575252 1 0 1
6571 52 1 5.3317583214182305 2.3755349471569005 54.53334381198415 0 0 0
7884 16 1 1.2135919012589498 18.27223617415833 57.45502936343511 0 0 0
4440 60 1 6.679724947371007 17.299541276457685 56.31079777678584 0 0 0
867 12 1 8.60131855993747 11.010233782080979 48.445786077289554 0 0 0
876 12 1 15.341084824556027 13.013467778567007 54.741921885155286 0 0 0
1278 7 1 3.3740234282004375 13.118938473694385 46.211644058135995 1 0 1
4309 32 1 18.044925148368172 26.000115523410663 49.07964935073809 0 0 0
1325 29 1 18.863862271717224 16.259812709874357 58.90159399037974 1 0 1
1921 18 1 16.173357722270502 26.62313956054314 56.687970318806215 0 0 0
8486 50 1 2.8619147353604366 24.15168020677406 54.04782381321341 0 0 0
447 22 1 10.859232334461824 2.70841201463499 50.88418205022028 0 0 0
231 22 1 16.25484370213084 4.8183290636173925 57.20670821322705 0 0 0
7887 16 1 4.056242859576275 19.212625519973013 59.569291386790724 0 0 0
206 1 1 11.012814719437932 1.6329765470420625 55.73423715714196 1 0 1
4093 6 1 18.533966045759875 23.951652151937175 55.537692255521364 0 0 0
5641 50 1 7.643043303175252 25.84158783794954 59.36592753974104 0 -1 0
657 4 1 8.682611023806356 9.495924199854642 53.50218772821955 0 0 0
1645 15 1 15.989188524236551 20.421963393623557 56.76090258318637 0 0 0
1671 15 1 9.287815538056442 19.5385823119745 46.96531743932967 0 0 0
1290 7 1 11.327571787826466 14.278124932663175 55.79633210875437 1 0 1
1292 7 1 11.99758091838559 13.670351440460156 58.117897556785614 0 0 1
7018 58 1 6.499683683711196 7.515952448113011 57.17209789882033 0 0 0
1643 15 1 14.279856007782364 21.890274551099512 55.83207181346462 0 0 0
7013 58 1 4.141281305052061 6.3420621269463275 53.636519685620875 0 0 0
2066 50 1 7.69575021469038 25.59087262647775 57.87725841730216 0 0 0
232 22 1 17.199029691427395 3.5841755728758278 57.1142142050409 0 0 0
8152 60 1 2.6126217771374924 14.924860766478607 51.85677539867779 0 0 0
655 4 1 7.124695371662415 10.348496829371932 51.87903845959004 0 0 0
7246 11 1 3.5394643356864766 10.650768120451607 57.8750915219864 0 0 0
2898 24 1 17.165370547890316 11.082321446558925 51.580977500772924 0 0 0
1885 51 1 9.022973105886814 22.253184028775113 53.603450904826374 1 0 1
7020 58 1 7.709303617560773 8.894934336077158 58.79682832957998 0 0 0
7534 14 1 1.2869341393424325 10.812638444147 49.94692506312715 1 0 1
208 1 1 12.107947084976766 1.9864672246254733 57.80067454152596 1 0 1
2790 30 1 14.92084750010672 6.720730143038568 51.18705455543584 0 0 1
7245 11 1 2.3036301312821514 9.897630811284811 57.51547551250403 0 0 0
445 22 1 9.834839702947807 4.146239198375665 49.57768795497657 0 0 0
7244 11 1 1.8663415680253557 9.939295918957237 56.0428911683583 0 0 0
1913 18 1 10.810687343718095 25.802172740171297 50.3927510701268 0 0 0
1404 13 1 3.1041605750795154 18.305158750727735 46.92629805921441 0 0 0
7576 58 1 3.930940066114203 15.278368784134962 59.79256791861918 0 0 0
877 12 1 14.931878246326093 11.969428014594198 55.7429365016536 0 0 0
3604 34 1 16.37314598804918 15.811221073124134 47.310093713471765 0 0 1
7573 58 1 1.5387345227502576 13.528814250065938 57.311653119057944 0 0 0
1884 51 1 8.989853460041404 23.652096997135185 52.88650960705802 1 0 1
3113 59 1 16.603094638125302 11.612544344151095 46.268200473669644 0 0 0
7535 14 1 2.364854153957553 11.073754481632553 51.005406668615024 1 0 1
7574 58 1 1.8862771954261435 14.042046566197996 58.60022868713021 0 0 0
8483 50 1 2.063531532445989 24.176422434488078 50.32256512500034 0 0 0
7882 16 1 1.0464414774890425 18.005657322964797 54.96754677276316 0 0 0
6323 50 1 3.874574249856417 1.9960968430450947 58.99799004555328 1 0 0
1874 51 1 2.261266588261667 22.345932878527925 45.76670091534702 1 0 1
6768 57 1 3.667355812930958 5.481503995220788 59.861542364140206 1 0 1
2568 20 1 17.848319940122135 3.1618222342423388 47.07152670583154 0 0 1
3603 34 1 15.569791138206712 15.95593614819192 46.05405310960055 0 0 1