LAMMPS data file via write_data, version 29 Oct 2020, timestep = 32000000

10752 atoms
2 atom types
10752 bonds
3 bond types
10752 angles
3 angle types
10752 dihedrals
3 dihedral types

-1.4019591925125496e-01 3.1008115919238300e+01 xlo xhi
-1.2113307625790526e-01 2.6791853076229280e+01 ylo yhi
 3.6697963732363334e+01 2.4630139626697294e+02 zlo zhi

Masses

1 14
2 15

Pair Coeffs # lj/cut/omp

1 0.0914 3.95
2 0.1947 3.75

Bond Coeffs # harmonic/omp

1 449.5 1.53
2 449.5 1.53
3 449.5 1.53

Angle Coeffs # harmonic/omp

1 62.0967 114
2 62.0967 114
3 62.0967 114

Dihedral Coeffs # opls/omp

1 1.411 -0.271 3.145 0
2 1.411 -0.271 3.145 0
3 1.411 -0.271 3.145 0

Atoms # molecular

1            1            1      3.78534      1.04786      36.8078
2            1            1      2.90572       1.2836      38.0028
3            1            1      2.51659      26.8555      38.4912
4            1            1      1.54751     0.241667      39.5945
5            1            1      2.11571      1.42428      40.3194
6            1            1      1.00271      1.92781      41.2701
7            1            1     0.795525     0.669807      42.0561
8            1            1      30.7095     0.834651      42.9133
9            1            1      30.5237      26.4492      43.6885
10            1            1      29.3412    0.0290004      44.4647
11            1            1      28.7696      25.9331      45.4377
12            1            1      29.7382      25.2355      46.3268
13            1            1      28.7505      25.0228      47.4872
14            1            1      29.0967      23.9873      48.5629
15            1            1      30.2634      24.5063       49.216
16            1            1    -0.181021      23.4202      50.0316
17            1            1      30.3634        22.78      51.2581
18            1            1     0.312062      22.2911      52.0961
19            1            1      1.13242      23.5407      52.1786
20            1            1       2.0206      23.6468      53.4558
21            1            1      1.96439      22.3811      54.1818
22            1            1      2.77456      22.3307       55.501
23            1            1      2.41493      21.1664      56.4701
24            1            1      3.43182      21.1289      57.6205
25            1            1      3.29194      19.8025      58.3228
26            1            1      4.27179       19.812      59.4182
27            1            1      4.10962      18.7329      60.4634
28            1            1      5.34602      18.6364      61.3719
29            1            1      5.35328      19.5966       62.532
30            1            1      6.56131      19.3549      63.4987
31            1            1      6.55514      20.4586      64.5459
32            1            1      5.22722      20.4978      65.2622
33            1            1       5.2808      21.6797      66.2097
34            1            1      4.10696      21.8068      67.2131
35            1            1      4.20633      22.9644      68.1328
36            1            1      2.96928      22.8572      69.0719
37            1            1      3.06655      21.8737      70.1668
38            1            1       1.9871      21.9851      71.2221
39            1            1      2.24108      21.0042      72.3013
40            1            1      1.13748      20.7672      73.2944
41            1            1      1.52736      19.7048      74.1969
42            1            1     0.677511      19.7788      75.3781
43            1            1     0.869366      18.6305      76.2754
44            1            1      30.9277      18.3508      77.3168
45            1            1      30.8879      19.5364      78.1808
46            1            1      29.6824      19.3733      79.1089
47            1            1      29.3787      20.7396      79.6362
48            1            1      30.3522       21.159      80.7334
49            1            1       30.926      20.0247      81.4899
50            1            1     0.533448       20.502      82.7025
51            1            1     0.914171      19.2221      83.4225
52            1            1      1.97607      19.5783      84.3613
53            1            1      2.25628      21.0458      84.2823
54            1            1      3.31239      21.3832      85.3781
55            1            1      3.29273      20.2186      86.3664
56            1            1      4.05978      20.5757      87.6344
57            1            1      4.00922      19.4002      88.5992
58            1            1      5.08426      19.3619      89.7512
59            1            1      4.97473      18.0955      90.5543
60            1            1       5.9202      18.3663      91.7763
61            1            1      5.97673      17.0875      92.5513
62            1            1      6.70258      17.4284      93.8531
63            1            1      7.09517      16.2006      94.5843
64            1            1      6.08816      15.7785      95.6087
65            1            1       5.1579      16.8453      96.1917
66            1            1      4.41216      16.1165      97.2267
67            1            1      5.30466      15.0089      97.6936
68            1            1      4.56725      14.1047      98.5838
69            1            1      3.51181      14.6259       99.587
70             1             1       3.39322       13.5952         100.7
71             1             1       2.05403       13.4871       101.314
72             1             1       2.16182       12.3977       102.305
73             1             1       1.24649       12.4914        103.42
74             1             1       1.18452       11.3653        104.39
75             1             1      0.265815       11.6185       105.545
76             1             1      0.178535       10.4531       106.554
77             1             1       30.1496       10.3877        107.49
78             1             1       30.4989       9.48217       108.646
79             1             1       29.3916       9.19778       109.634
80             1             1       28.9318       10.4449       110.375
81             1             1       27.8159       10.0198       111.215
82             1             1       27.2844       11.0654        112.14
83             1             1       26.1201       10.4155       112.831
84             1             1       25.6036       11.3014       113.895
85             1             1       26.5376       11.6621       114.991
86             1             1       25.9234       12.4806       116.056
87             1             1       24.6883       11.7394       116.574
88             1             1       24.0339       12.5487       117.681
89             1             1       25.0723       12.7182       118.816
90             1             1       24.5386       13.8074       119.656
91             1             1       25.5124       14.4842       120.681
92             1             1        24.816       15.3925       121.774
93             1             1       25.6494       15.8924       122.919
94             1             1       25.0042       17.0202       123.627
95             1             1        26.009       17.5034       124.692
96             1             1        25.208       18.2583       125.679
97             1             1       24.1248       17.4043       126.264
98             1             1       23.7867       17.8162       127.699
99             1             1        23.942       19.3125       127.732
100             1             1       23.8239       19.9314        129.15
101             1             1       22.9001       19.0101       129.885
102             1             1       22.3513        19.679       131.127
103             1             1       23.3903       20.7759       131.665
104             1             1       22.6556       21.5025       132.789
105             1             1       23.5789        22.068       133.875
106             1             1       22.8729       22.6472       135.135
107             1             1       23.6198       23.7065       135.937
108             1             1       24.7792       23.0296       136.691
109             1             1       25.4433       24.1593       137.481
110             1             1       24.4376       24.6442       138.418
111             1             1       24.9738       25.6797       139.337
112             1             1       23.9727       26.1675       140.357
113             1             1       24.5947      0.102522       141.403
114             1             1       25.7016       26.2683        142.14
115             1             1       26.2625      0.279482       143.152
116             1             1       25.3422      0.820434       144.145
117             1             1       26.1096       1.81241       144.953
118             1             1       25.2577       2.43021       146.019
119             1             1       25.9937       3.13692        147.13
120             1             1       27.1149       2.34108       147.722
121             1             1       27.9612       3.20334       148.605
122             1             1       26.9724       3.95231       149.533
123             1             1        27.515       4.74081       150.658
124             1             1       26.4315       5.46243       151.526
125             1             1       27.1689        6.1147       152.738
126             1             1       26.3024       6.91054        153.73
127             1             1       27.1241        7.6119       154.782
128             1             1       26.2044       8.34889       155.733
129             1             1       26.9304       9.01694       156.915
130             1             1       25.9448       9.58575       157.886
131             1             1       26.6093       10.4768       158.908
132             1             1       27.6687       9.85074       159.669
133             1             1       28.4887       10.8058       160.449
134             1             1       27.6814        11.734       161.232
135             1             1       28.5236       12.5027       162.178
136             1             1       29.2636        11.406        162.92
137             1             1       30.2551       12.0807       163.796
138             1             1       29.6168       13.2113       164.512
139             1             1       30.3808       13.7292       165.733
140             1             1       30.6412       12.6223       166.678
141             1             1       0.45178         13.14       167.754
142             1             1      0.889961       11.9751       168.676
143             1             1       30.9052       12.0175       169.697
144             1             1       30.9075       10.8722       170.713
145             1             1       29.5813       10.7114       171.498
146             1             1       29.7306       9.53722       172.484
147             1             1       28.5907        9.4522       173.536
148             1             1       28.5983       10.5845       174.566
149             1             1       27.2496       10.3769       175.349
150             1             1       27.3243       11.0555       176.719
151             1             1       28.8492       11.0283       176.884
152             1             1       29.1088       11.4459       178.275
153             1             1       29.2308       12.9475       178.484
154             1             1       29.3416       13.3549       179.961
155             1             1       30.3058       12.4322       180.552
156             1             1       31.0737       13.0287       181.615
157             1             1       30.4657       14.2852       182.009
158             1             1      0.225594       14.8119       183.068
159             1             1      0.559838       13.6761       184.032
160             1             1       1.84783         13.89       184.814
161             1             1       2.00932       13.1526       186.075
162             1             1       3.20094       13.5424       186.827
163             1             1       3.32418       12.7679        188.08
164             1             1       4.40482       13.2838       188.972
165             1             1       4.65071       12.2555           190
166             1             1       5.71366        12.657       190.966
167             1             1       6.35444       11.7919       191.972
168             1             1       7.03322       12.4424       193.149
169             1             1       7.67086       11.3656       194.063
170             1             1       8.40063       12.0029       195.217
171             1             1       7.62341       13.1652       195.748
172             1             1       8.31571       14.0966       196.758
173             1             1        9.2247       13.4378       197.745
174             1             1       10.0736         14.28       198.614
175             1             1       9.02616       14.9797       199.502
176             1             1       9.75668       15.8491       200.467
177             1             1       10.9768       15.0998       200.837
178             1             1       11.0856       15.1431       202.338
179             1             1       10.2423       16.2399       202.905
180             1             1       11.0481       17.1791       203.859
181             1             1       10.3804       17.1026       205.263
182             1             1       11.0682        17.899       206.395
183             1             1       10.5023       17.6467       207.803
184             1             1       10.8066       16.2244       208.138
185             1             1       10.1677       15.6868       209.378
186             1             1        8.8019       16.2014       209.411
187             1             1       8.17132       15.5685       210.643
188             1             1       9.08601       14.6117       211.374
189             1             1       8.51471       14.1288       212.727
190             1             1       9.56783       13.3078        213.47
191             1             1       8.89499        12.667        214.65
192             1             1       9.88013       11.8117       215.477
193             1             1       9.17186       11.2181       216.656
194             1             1        10.168       10.5854       217.531
195             1             1       9.44342       9.62406       218.358
196             1             1        10.459       9.23817       219.458
197             1             1        9.7495       8.48244        220.48
198             1             1       10.7887       7.89652        221.49
199             1             1       10.3648       7.07452         222.7
200             1             1       11.4406       6.95169       223.704
201             1             1       12.0404       8.30102       223.738
202             1             1       13.0681        8.4488       224.855
203             1             1       13.5665       7.15489       225.424
204             1             1       12.8456        6.9947        226.69
205             1             1       12.8009       8.31076       227.426
206             1             1       11.7239       8.35613       228.549
207             1             1        11.656       7.24879       229.551
208             1             1       10.6087       7.63884       230.648
209             1             1       10.5471       6.62315       231.698
210             1             1        9.4623        6.7817       232.644
211             1             1       9.66067        5.8661       233.822
212             1             1        8.4209       6.06183       234.608
213             1             1       8.31982       4.93889       235.616
214             1             1         9.718       4.62204       235.929
215             1             1       9.67801       3.47191        236.91
216             1             1       8.56286       3.74033       238.013
217             1             1        8.5316       2.64959       239.082
218             1             1        7.2424       2.56988       239.918
219             1             1       7.29752       1.57805       241.052
220             1             1       6.00342       1.72833       241.816
221             1             1        6.1449       0.70972       242.929
222             1             1       5.10729      0.753372       244.025
223             1             1       5.17254       2.05066        244.87
224             1             1       3.95329       2.25597       245.608
225             2             1       8.28688       2.91121        244.46
226             2             1       8.64516       4.13159       245.226
227             2             1       7.55553       4.59254       246.229
228             2             1       7.42385       3.21876       37.2994
229             2             1       6.44645       3.41461       38.4923
230             2             1       6.28662       2.23573       39.3212
231             2             1       5.32389       2.39536       40.3918
232             2             1       5.36969       3.67751       41.0892
233             2             1       4.22211       3.64645       42.0591
234             2             1       4.44163        2.6803       43.1079
235             2             1       3.18738       2.57287       43.9096
236             2             1       3.06524       1.50821       44.9955
237             2             1       1.65901       1.40973       45.6285
238             2             1       1.36205      0.170123       46.5418
239             2             1       2.21259     0.0666044       47.9011
240             2             1       2.12022       25.6087       48.4763
241             2             1       2.73099       25.6943       49.8015
242             2             1       3.90001     -0.248374       49.6751
243             2             1       4.53264       26.8974       51.0207
244             2             1       4.73637        25.457       51.6196
245             2             1       5.45001       25.5179       52.9954
246             2             1       5.63502       24.2477       53.7941
247             2             1       6.46262       24.2706       55.0435
248             2             1        6.2354       23.0411       55.8122
249             2             1       7.01749       23.1069       57.0455
250             2             1       6.76433       21.8237        57.724
251             2             1       7.63296       21.8617       59.0052
252             2             1       7.97903       20.5331       59.5617
253             2             1       8.90237       20.7196       60.7814
254             2             1       8.61985       21.6896       61.8326
255             2             1       9.83558       21.7818       62.6675
256             2             1       9.48402       22.8682       63.7106
257             2             1       10.4952       22.8659       64.8011
258             2             1       10.5164       24.1732       65.4998
259             2             1       9.21633       24.5678       66.1391
260             2             1       8.70199       23.3783       66.9963
261             2             1       7.53725       23.7299       67.8891
262             2             1       7.72986       25.1503        68.369
263             2             1       6.89393       25.6125       69.4211
264             2             1       6.52765       24.2504       70.1517
265             2             1       5.53395       24.3013       71.2326
266             2             1       5.66348       23.1354       72.1795
267             2             1        5.0616       23.1759       73.5143
268             2             1       4.98219       21.8973       74.2381
269             2             1        4.0668       21.9686       75.3774
270             2             1       4.18104       20.7298       76.1678
271             2             1       3.17641       20.4852       77.2949
272             2             1        3.4138       21.5562       78.2345
273             2             1       2.25798       21.5053       79.2402
274             2             1       2.67138       22.3321       80.4038
275             2             1       4.00197       22.1521       81.1371
276             2             1       4.20883       23.2265        82.187
277             2             1       5.44479       22.9139       82.9023
278             2             1       5.47357       24.0611       83.9138
279             2             1       6.65117       23.7526       84.8285
280             2             1       6.23707        22.781       85.9279
281             2             1       7.41593       22.3326       86.6618
282             2             1       7.55294       23.1307       87.9033
283             2             1       8.46196       22.2749       88.8453
284             2             1       7.62171       21.0511       89.2773
285             2             1        8.5931       20.3556       90.2148
286             2             1       9.42453       21.5312       90.8908
287             2             1       10.2797       21.1256       92.0662
288             2             1       9.49542       20.0923       92.8922
289             2             1       10.3682       19.3263       93.8275
290             2             1       9.63675       18.5507        94.929
291             2             1        10.547       17.5635       95.8373
292             2             1       9.53653        17.153       96.7628
293             2             1       8.43239       18.2261       96.7509
294             2             1       7.93117       18.4353       98.1434
295             2             1       7.73027       17.1695       98.8623
296             2             1       6.93371       17.2391       100.088
297             2             1       6.87385       15.8806       100.801
298             2             1       6.09457       16.1894       102.011
299             2             1       5.67932       14.8687       102.662
300             2             1       4.78466       15.0048        103.92
301             2             1       4.63349        13.686       104.656
302             2             1       3.71244       13.7983       105.888
303             2             1       3.74944        12.553       106.783
304             2             1       2.66629        12.572       107.784
305             2             1       3.01668       11.5878       108.786
306             2             1       1.95829        11.385       109.887
307             2             1       1.76169       12.3866        110.96
308             2             1      0.493644        12.228       111.695
309             2             1      0.151478       13.2536        112.81
310             2             1       29.9458       12.7526       113.349
311             2             1       29.4556         13.64       114.443
312             2             1       30.5895       13.9241       115.354
313             2             1       30.0546       14.6666       116.647
314             2             1       28.6373       14.1652        116.93
315             2             1       28.1455       14.9025       118.123
316             2             1       29.1738       15.5744       119.083
317             2             1       28.4647       16.4523       120.049
318             2             1       29.2787       16.8862        121.25
319             2             1       28.5865       17.9037       122.184
320             2             1       29.5648       18.5397        123.19
321             2             1       28.9011       19.3215       124.399
322             2             1       29.8777       20.0303       125.259
323             2             1       29.0126        20.725       126.288
324             2             1        28.015       19.9474       127.134
325             2             1       27.2397       20.8506       128.049
326             2             1        28.322       21.7989       128.551
327             2             1       27.7857       22.7282       129.628
328             2             1       27.1413       22.0413       130.809
329             2             1        26.432       22.7684       131.901
330             2             1       27.3052       23.6402       132.638
331             2             1       26.4276       24.1241       133.797
332             2             1       27.2042       25.1812       134.554
333             2             1       28.4287       24.6147       135.085
334             2             1       29.0882       25.5234        136.12
335             2             1       28.0218       26.1961        137.01
336             2             1       28.6123       26.9489       138.173
337             2             1       27.7601      0.746608       139.252
338             2             1        28.608       1.51004       140.261
339             2             1       29.7289      0.724034       140.807
340             2             1         30.24       1.65212       141.925
341             2             1       29.3398        2.0535       143.057
342             2             1        29.914       3.25208       143.661
343             2             1       29.0943       3.43781       144.891
344             2             1       29.6277       4.55761        145.72
345             2             1       30.7555       3.85659        146.54
346             2             1      0.354748       4.70811       147.542
347             2             1       30.5622       5.36892       148.499
348             2             1      0.182975       6.30481       149.408
349             2             1       30.3728       6.81996       150.462
350             2             1     -0.115005       7.79847       151.412
351             2             1       30.1915       8.09102       152.641
352             2             1       30.8157        9.1328       153.482
353             2             1       29.9276       9.80289       154.535
354             2             1        30.605       10.4977       155.653
355             2             1       29.5496       11.2265       156.484
356             2             1       30.1714       11.6785       157.728
357             2             1      0.490046       11.6842       157.423
358             2             1        1.0513       12.7452        158.34
359             2             1      0.379737       12.6363       159.726
360             2             1       1.12373       13.6124       160.573
361             2             1      0.311615       14.1249       161.713
362             2             1        1.1171       14.9483       162.605
363             2             1       2.13307        14.088       163.165
364             2             1       2.89429        14.701       164.344
365             2             1       2.24215       15.2918       165.537
366             2             1        3.1095       16.1226       166.385
367             2             1       4.49318       15.6113       166.698
368             2             1       4.43888       14.5168       167.758
369             2             1       3.66262       14.8706       169.013
370             2             1       3.80135       13.8443       170.093
371             2             1        2.5325       13.8289        170.88
372             2             1       2.54064       12.7332       171.854
373             2             1       1.50794        12.903       172.909
374             2             1       2.10574        12.181       174.117
375             2             1       1.00474       11.5661       174.937
376             2             1      0.180785       12.7503       175.471
377             2             1       1.17879       13.4485       176.267
378             2             1       0.50241       14.6524        176.89
379             2             1       1.20317       15.1835       178.083
380             2             1       2.00952       14.0723       178.785
381             2             1       2.88951       14.4832       179.992
382             2             1       2.33483       15.8403       180.413
383             2             1        3.2292       16.6268       181.327
384             2             1        3.9263       15.6873       182.281
385             2             1       4.65835       16.3736       183.366
386             2             1       4.89813       15.3438       184.471
387             2             1       5.66852       15.8003       185.647
388             2             1       6.21706       14.7894       186.565
389             2             1       7.17481        15.502       187.522
390             2             1       7.62343       14.5584       188.631
391             2             1       8.33134       15.1334       189.864
392             2             1       9.01308       13.9213       190.602
393             2             1       9.78677       14.3842        191.74
394             2             1       10.2907       13.1748        192.51
395             2             1       11.2992       13.8314        193.42
396             2             1        10.645       14.7819       194.285
397             2             1       11.4597       15.4834       195.342
398             2             1       12.3541       14.5774       196.037
399             2             1       13.1683       15.4152       197.011
400             2             1       12.3435       16.4369        197.89
401             2             1       13.0795        17.184       199.002
402             2             1       14.2574       16.2886       199.512