LAMMPS data file via write_data, version 29 Oct 2020, timestep = 34000000

10752 atoms
2 atom types
10752 bonds
3 bond types
10752 angles
3 angle types
10752 dihedrals
3 dihedral types

-0.13219862088173073 31.000118620868378 xlo xhi
-0.11422319358577582 26.784943193556252 ylo yhi
-1.2120066755424261 284.21136667489554 zlo zhi

Masses

1 14
2 15

Pair Coeffs # lj/cut/omp

1 0.0914 3.95
2 0.1947 3.75

Bond Coeffs # harmonic/omp

1 449.5 1.53
2 449.5 1.53
3 449.5 1.53

Angle Coeffs # harmonic/omp

1 62.0967 114
2 62.0967 114
3 62.0967 114

Dihedral Coeffs # opls/omp

1 1.411 -0.271 3.145 0
2 1.411 -0.271 3.145 0
3 1.411 -0.271 3.145 0

Atoms # molecular

230 2 1 5.66136743093723 4.356544858068987 2.2117625058913126 0 0 0
231 2 1 6.042208272814305 3.851185635010529 3.636934003571972 0 0 0
229 2 1 6.028218832654051 3.50002386833459 1.0144353489754354 0 0 0
232 2 1 5.763531438675099 4.685244526240742 4.88365943653643 0 0 0
4 1 1 2.604288691895072 2.041216992004612 3.8763230828714983 0 0 0
2 1 1 2.3367720221839083 2.1000174276928805 1.3043503332465427 0 0 0
454 3 1 1.4832911052717115 5.493484223253604 4.611388271998424 0 0 0
5 1 1 2.1330817265675086 1.2470558216541616 5.158692100265118 0 0 0
1 1 1 2.203132052934821 1.2085053579423193 0.100072240292574 0 0 0
452 3 1 1.4527152794038884 5.9073205237868605 2.169688216911247 0 0 0
450 3 1 1.2271752931901163 6.143622219086697 -0.4090216058114503 0 0 0
228 2 1 5.557721374295915 4.145938389879307 -0.31935785457368726 0 0 0
453 3 1 2.2357032608418113 6.095625754561014 3.4186482532830347 0 0 0
3 1 1 2.2708013793409054 1.293007186905426 2.6059140358693735 0 0 0
6 1 1 2.2206384989412054 1.9849022672564036 6.47180560729863 0 0 0
455 3 1 2.222105940013502 6.00394580009779 5.858599568727663 0 0 0
2693 13 1 9.123807225369381 1.8961579260731227 4.734646076733605 0 0 0
2691 13 1 9.119358174235858 1.7571691745802223 2.1945180923643353 0 0 0
2915 14 1 12.869216679576445 3.6029760013546603 1.880340780294318 0 0 0
2917 14 1 13.275526962140031 3.8924062053487027 4.4180149105572015 0 0 0
2914 14 1 13.64307533440647 3.7240204743177565 0.5756899163382325 0 0 0
2916 14 1 13.72331683913431 3.3226265513742943 3.0975854182487126 0 0 0
2913 14 1 12.769166101215204 3.5521254514518352 -0.6128137140448772 0 0 0
2692 13 1 9.624568869930048 1.0639734804416545 3.4938328327889847 0 0 0
2690 13 1 9.702037110050378 1.1730513499076456 0.8905038017832885 0 0 0
2689 13 1 9.251027002761381 1.8162901465485506 -0.4087977036659024 0 0 0
3139 15 1 9.910210418249708 6.029539600898359 3.139296621147479 0 0 0
3137 15 1 9.435313023254144 5.987272380934425 0.553040382184762 0 0 0
3138 15 1 9.118278497388538 6.581763644290843 1.929897333852761 0 0 0
3140 15 1 9.578752772190157 6.587715215971933 4.525241426849242 0 0 0
3360 15 1 8.66044249864722 6.485053825183738 -0.6702309430038821 0 0 1
451 3 1 2.1718266446480823 5.8674156499363335 0.8003422556358468 0 0 0
678 4 1 5.001999537188492 8.440123337384296 4.914499419285137 0 0 0
676 4 1 5.387759677158421 8.198294241128265 2.3518650081562686 0 0 0
899 5 1 1.6299440565011831 10.130404969657274 -0.40324648400878615 0 0 0
675 4 1 5.741511662864057 8.989256093178685 1.0904138847145983 0 0 0
677 4 1 5.91823564254782 8.652058128490724 3.7160557140055026 0 0 0
900 5 1 1.8622975617790318 10.75476083009626 0.93286070503656 0 0 0
902 5 1 1.8205687750477755 10.630413063181647 3.4559554127783167 0 0 0
901 5 1 1.3973443240575656 9.945929425288858 2.125594291019067 0 0 0
903 5 1 1.3375644672358173 9.95583707867587 4.7011988974555035 0 0 0
674 4 1 5.289446062029895 8.285610208264533 -0.1816210130139848 0 0 0
1123 6 1 5.983943468653627 13.041380319427711 0.7130790144176062 0 0 0
1122 6 1 5.252977375407996 12.534610701209665 -0.5547246631582605 0 0 0
1126 6 1 5.188711860532461 12.521731603158637 4.679895341535891 0 0 0
1124 6 1 5.231690067861631 12.677131693612615 2.056013493722096 0 0 0
1125 6 1 5.9074003963758726 13.022647038257047 3.4071121490129768 0 0 0
679 4 1 5.837962062615191 8.62095366787143 6.179264071389845 0 0 0
3362 16 1 13.80678984846905 7.58197863759713 0.44507544444802427 0 0 0
3364 16 1 13.801416282056229 7.547881948694853 3.0297424655570175 0 0 0
3363 16 1 13.192865167888563 8.137530650500768 1.7217451008363294 0 0 0
3361 16 1 13.03772960649113 8.067220100244871 -0.8041245874154577 0 0 0
3365 16 1 13.22127924779153 8.098209542301017 4.361562514572022 0 0 0
3589 17 1 9.305898046331395 10.858441153044545 4.522827313389645 0 0 0
3587 17 1 9.25824768368728 10.854950743679405 1.9739777280858428 0 0 0
3588 17 1 9.97287183309301 10.36586672325375 3.291559926386059 0 0 0
3586 17 1 9.793687783559449 10.100058124273925 0.7418834953883142 0 0 0
3810 18 1 13.697996767601833 11.84837095651719 0.5304680094759422 0 0 0
3812 18 1 13.587167586095944 11.766148513329309 3.147278530530328 0 0 0
3585 17 1 9.118558147967615 10.715983060835928 -0.49054540347340225 0 0 0
3809 18 1 13.367720148671793 12.681304277181566 -0.6398089234168876 0 0 0
3813 18 1 13.105461829017969 12.487942135076905 4.34165956213077 0 0 0
3811 18 1 13.126418779510267 12.433419820145472 1.8334858269017458 0 0 0
1345 7 1 1.4464652307393697 14.776124012275725 -0.43292979357317374 0 0 0
1347 7 1 1.165144899435017 14.880488171332752 2.1264277890133925 0 0 0
1349 7 1 1.1511758668217065 14.762679603965642 4.721846745141244 0 0 0
1348 7 1 1.9337352966032935 15.17557674373831 3.435524126737482 0 0 0
1346 7 1 2.0809139030034265 14.782573595379821 0.9467797948390646 0 0 0
1570 8 1 5.492156354557373 16.818853839798695 2.2312900321122067 0 0 0
1572 8 1 5.498763845366782 16.864279612658798 4.767972634769321 0 0 0
1571 8 1 6.211314626282995 17.281383562665265 3.4546255919634126 0 0 0
1569 8 1 6.117253253143787 17.31557469813643 0.9218716887313119 0 0 0
1797 9 1 1.8551117487143016 19.123816554514242 4.933245290915304 0 0 0
1795 9 1 1.7736308021778837 19.1066905376742 2.3388369402887976 0 0 0
1793 9 1 1.4485509753025776 19.227232281029366 -0.19610251381959976 0 0 0
1792 8 1 5.385739221683039 16.916600813299233 -0.37178537351191454 0 0 1
1796 9 1 2.6375940571642538 19.234409849980608 3.6242148453498038 0 0 0
1794 9 1 2.478773896849625 19.28209607971583 0.994164965660786 0 0 0
1798 9 1 2.623101757523188 19.15384092546227 6.243275652261947 0 0 0
1573 8 1 6.311493302170195 17.191642205754682 6.0372891088131295 0 0 0
4034 19 1 10.215020039833098 14.250862346678677 0.8014301338495442 0 0 0
4036 19 1 9.5379327086571 14.457110411846102 3.2194268061428417 0 0 0
4035 19 1 9.937507414572211 15.15538051937791 1.9620282807749612 0 0 0
4037 19 1 9.424810068797914 15.29024301311119 4.498740271070502 0 0 0
4258 20 1 13.758810244879564 17.13159386531174 0.4518102164344695 0 0 0
4259 20 1 13.45239094092948 17.854419393757656 1.7805151563010333 0 0 0
4261 20 1 13.430351881086551 17.561640977350667 4.296111330957134 0 0 0
4260 20 1 13.566193098446965 16.822676933432838 2.953473451065955 0 0 0
4257 20 1 13.488146677920708 17.958833230150972 -0.8058630561212392 0 0 0
4482 21 1 9.705036205335684 18.940318361744005 0.7405717685888418 0 0 0
4484 21 1 9.865105934511314 19.305884344911416 3.2268999438336774 0 0 0
4033 19 1 10.399655326387089 15.112147329151721 -0.45236180573602514 0 0 0
4485 21 1 9.112264754970305 19.68582721490155 4.513216690668931 0 0 0
4483 21 1 9.227351711531337 19.725631522035215 1.923000665759822 0 0 0
4481 21 1 9.098386130584146 19.4379750163038 -0.589243240822002 0 0 0
4262 20 1 13.312387998322295 16.610837452042894 5.530094554402956 0 0 0
4486 21 1 9.976491361322884 19.37802232581799 5.807891552476695 0 0 0
2469 12 1 5.976195752922161 26.70016819974686 3.1652379341245247 0 0 0
2467 12 1 5.790512674931798 26.73894051754651 0.6423564148424348 0 0 0
2466 12 1 5.130669540193711 26.10464017744725 -0.5892220414159944 0 0 0
2468 12 1 5.3821668246998735 26.036857977955535 1.906050479894617 0 0 0
2470 12 1 5.311157677380828 26.129834499954587 4.449479538340808 0 0 0
2020 10 1 5.508539156895911 21.420658456553817 4.625616100241399 0 0 0
2019 10 1 6.266425974106241 21.943971669481293 3.374019554420552 0 0 0
2018 10 1 5.763053907717941 21.346398032131965 1.9987827994696716 0 0 0
2017 10 1 6.477400721948819 21.9081034718479 0.7365246495627147 0 0 0
2245 11 1 2.0806673737380152 23.246831084159663 4.869117363379223 0 0 0
2244 11 1 1.9949474054942042 24.036021382554363 3.545929647199779 0 0 0
2242 11 1 1.9126164067991613 24.12564397461864 0.9960887218037007 0 0 0
2243 11 1 2.171179273453725 23.304575181197436 2.2456855770273902 0 0 0
2241 11 1 2.318890905543258 23.529868408846728 -0.3086072851997155 0 0 0
2240 10 1 5.8342973404144445 21.3882501246879 -0.4846500790114132 0 0 1
4706 22 1 13.880707560912795 21.38949851774387 0.7314159207328701 0 0 0
5153 24 1 13.631689958059537 26.27551627181105 -0.5359835438272891 0 0 0
5154 24 1 13.74401924049755 25.40513171029571 0.7478679080242061 0 0 0
5156 24 1 13.095209423438389 25.34154475750504 3.3107056395436345 0 0 0
5155 24 1 13.112018302475743 26.081929150882612 2.0244252763059762 0 0 0
5157 24 1 13.103280976658764 26.26016533096493 4.500862127818474 0 0 0
4705 22 1 13.222611144034246 21.987025548876655 -0.5675546363463898 0 0 0
4708 22 1 13.894335087856893 21.16011098113018 3.2737113463651086 0 0 0
4707 22 1 13.262603470376813 21.781951112653037 2.111565640776375 0 0 0
4929 23 1 9.29195894855033 24.105219905723814 2.035636115964489 0 0 0
4931 23 1 9.081867023836912 23.912526827332453 4.647804698721213 0 0 0
4930 23 1 9.845539234458057 23.5894641917435 3.3414678546432306 0 0 0
5152 23 1 9.88885490006102 23.6758181848936 0.7352157709203935 0 0 1
4709 22 1 13.210286930175876 21.63192609358927 4.5427462200810815 0 0 0
5151 23 1 9.191261021739148 24.23019521780104 -0.49510854598627174 0 0 1
4710 22 1 14.076579656522446 21.317001742813897 5.808875316757898 0 0 0
5158 24 1 13.120439184152064 25.43259054306733 5.80430069559396 0 0 0
233 2 1 6.019811660718421 3.882859991927861 6.1130700612103785 0 0 0
236 2 1 5.394184532472776 4.271538114212713 10.011409803356567 0 0 0
234 2 1 5.457640112313196 4.392080821963168 7.484254862139624 0 0 0
235 2 1 6.077890637867895 3.7573534070475954 8.753091466777072 0 0 0
237 2 1 6.044364061625059 3.651183576695613 11.303882021597328 0 0 0
8 1 1 1.9163254821349383 1.941782569690516 9.035218575504546 0 0 0
10 1 1 2.2277341829273944 1.6926466037974974 11.58208541478917 0 0 0
460 3 1 1.1709595648204847 5.8523547458040275 12.24729364387702 0 0 0
458 3 1 1.2864847867294138 5.871855443977849 9.734054907699216 0 0 0
456 3 1 1.5706100930800888 5.628453026634693 7.1683023394858285 0 0 0
238 2 1 5.596175899664612 4.389204908416396 12.564438721083993 0 0 0
11 1 1 1.8819332042008075 0.7689209191699348 12.790641474894265 0 0 0
9 1 1 1.6188876990887355 1.1273122764253405 10.321227474067404 0 0 0
7 1 1 2.034459444871569 1.1703364300325194 7.724897729393414 0 0 0
457 3 1 2.004783730930356 6.353097900538838 8.479165148711894 0 0 0
459 3 1 1.9042665219657136 6.343981182630001 11.035963843300712 0 0 0
2473 12 1 6.102201948505983 26.515600958513975 8.307972434623235 0 0 0
2475 12 1 6.047806251611457 26.383492748987273 10.894038316921705 0 0 0
2918 14 1 14.000134601169618 3.3443318704799254 5.660831040064932 0 0 0
3141 15 1 9.950087253187416 5.714717804417219 5.781339132118949 0 0 0
2694 13 1 9.450435300305978 1.1650792078617669 6.020883394826275 0 0 0
2921 14 1 13.593207468055022 4.010981468846401 9.671181419498351 0 0 0
2919 14 1 13.73728699040506 4.074666713042472 6.99877119556184 0 0 0
2922 14 1 14.095117471123173 3.3978390639355514 10.946477426528586 0 0 0
2920 14 1 14.016814903153456 3.3188415254640513 8.316864630741113 0 0 0
2695 13 1 8.910044789789932 1.783511089457758 7.3851695151063765 0 0 0
2697 13 1 9.150263354353 1.824433105996691 9.913584869617738 0 0 0
2699 13 1 8.803692407564647 1.7140908064922307 12.443110608844037 0 0 0
2698 13 1 9.697703589177898 1.3695386443199409 11.31586805993434 0 0 0
2696 13 1 9.75303150016173 1.3511120346384222 8.57687459533484 0 0 0
2923 14 1 13.5619307392779 4.021278990558289 12.230273605251636 0 0 0
3143 15 1 9.728207225299558 5.282449633188394 8.523392496951802 0 0 0
3145 15 1 9.964681799775066 5.739941815513031 11.087092482267957 0 0 0
3146 15 1 9.377278599311383 6.534784422004432 12.267806547561682 0 0 0
3144 15 1 9.540806804750366 6.254972209418653 9.674299006719629 0 0 0
3142 15 1 9.408132700460309 6.039203988285555 7.155661585480614 0 0 0
1127 6 1 5.880796273400952 12.887618286743033 6.003433248246324 0 0 0
904 5 1 1.9102675942355436 10.50876110551009 6.034002405500755 0 0 0
684 4 1 4.9081345524590425 7.92679104346769 12.560956241899689 0 0 0
680 4 1 4.936464636228371 8.433028116118479 7.38639319443625 0 0 0
682 4 1 5.006456022415221 7.9283432137252365 9.94999022077777 0 0 0
683 4 1 5.659603206190377 8.320243281398183 11.241220077642634 0 0 0
681 4 1 5.718803273459281 8.315346374164978 8.666029989175062 0 0 0
906 5 1 1.807056473227409 10.518946585178409 8.624460153269649 0 0 0
908 5 1 1.603740277324307 10.753517948904571 11.04170529609626 0 0 0
907 5 1 1.3150007282350027 9.809925498153437 9.876272960699644 0 0 0
905 5 1 1.2760247394417192 9.91925715732943 7.3158070448005255 0 0 0
909 5 1 1.1310235835539337 10.13154147586899 12.341887055755203 0 0 0
1132 6 1 5.386783073138094 12.073025297502593 12.401966945380188 0 0 0
1130 6 1 5.1890347492083535 11.883425151680843 9.854711139463285 0 0 0
1131 6 1 5.910602481068432 12.486872948599702 11.045159869532233 0 0 0
1129 6 1 5.783871486805609 12.575516399296296 8.660184029264878 0 0 0
1128 6 1 5.102969915110937 12.360592306582715 7.240096871817624 0 0 0
3366 16 1 14.020622339029485 7.611221965865914 5.581539028676559 0 0 0
3590 17 1 9.953735862207756 10.457729819012753 5.8433444117601825 0 0 0
3814 18 1 13.505169025081683 11.817008397163828 5.623410914077943 0 0 0
3368 16 1 14.023421825021273 7.709788895242193 8.153730662641841 0 0 0
3370 16 1 13.957739692590375 7.99898003017003 10.692719557036769 0 0 0
3369 16 1 13.210659017062262 8.205769425295678 9.378633717705487 0 0 0
3367 16 1 13.348108405388956 8.133188992325467 6.859425227510526 0 0 0
3593 17 1 9.324836181505388 10.420056788456623 9.705402426178443 0 0 0
3591 17 1 9.196941152378038 10.682304567392901 7.182208823591237 0 0 0
3592 17 1 10.056874678947851 10.203874318169678 8.406215840147832 0 0 0
3594 17 1 10.019921250501964 10.070741891071652 11.010349889351543 0 0 0
3595 17 1 9.113488629333588 10.31751908211937 12.240107852998511 0 0 0
3818 18 1 14.233595052648017 12.374799268567623 10.60549872792033 0 0 0
3816 18 1 13.904077260553816 12.035801122992988 8.159086318847134 0 0 0
3371 16 1 13.155865081084997 8.344358025851363 11.960123608114136 0 0 0
3819 18 1 13.645817296860436 13.040220282453369 11.884179781204837 0 0 0
3817 18 1 13.596351005141452 12.93723027735755 9.334645704107658 0 0 0
3815 18 1 13.36784992318206 12.59631320479721 6.875476886236706 0 0 0
1350 7 1 1.9666743247141811 14.887196638825909 5.990614593772735 0 0 0
1351 7 1 1.3745237067646854 14.46034201530114 7.291610707084036 0 0 0
1355 7 1 1.902875762968391 14.443765825672576 12.326444055097973 0 0 0
1353 7 1 1.721752225899052 14.405262486787032 9.796385997925308 0 0 0
1354 7 1 2.5866172771886404 14.806915446413461 11.003126242500233 0 0 0
1352 7 1 2.275200211896075 14.878728642561192 8.473267840252866 0 0 0
1574 8 1 5.440481310323322 16.998386574080595 7.313769970163872 0 0 0
1576 8 1 5.50302958850943 16.961264325610042 9.872318449783553 0 0 0
1575 8 1 6.301907835656687 17.119098954577694 8.60023502768066 0 0 0
1577 8 1 6.408265304045791 16.59939284755249 11.05246117248633 0 0 0
1578 8 1 5.582114666009215 16.72838417089284 12.301819068417384 0 0 0
1803 9 1 1.4987395701920008 19.142743546444795 12.566299015929994 0 0 0
1801 9 1 1.7188965491391779 19.276517004471334 10.034965896563095 0 0 0
1799 9 1 1.8148153004187129 19.49967462014835 7.498905637480526 0 0 0
1800 9 1 2.5952823096576316 19.255784445102172 8.802154784472796 0 0 0
1802 9 1 2.4434611088618667 19.222356601342547 11.34213515098907 0 0 0
4038 19 1 9.517180578997092 14.42991322866382 5.771385197446886 0 0 0
4042 19 1 9.786498707083982 14.320820694214312 10.81752692806257 0 0 0
4040 19 1 9.65438819473462 14.411365133729564 8.327060940878841 0 0 0
4039 19 1 9.67202829533775 15.279277108834645 7.056227479798379 0 0 0
4041 19 1 9.868270296695972 15.208574385689976 9.573758211302158 0 0 0
4043 19 1 10.157062351459397 15.02703527575412 12.096804195980727 0 0 0
4265 20 1 13.611642984299099 17.50140247407892 9.380610809356195 0 0 0
4263 20 1 13.535899950146757 17.434702991461883 6.796350160277205 0 0 0
4267 20 1 13.209430869495437 17.495818802327555 11.871767876370162 0 0 0
4266 20 1 13.63999289773831 16.63916786639923 10.657028004254766 0 0 0
4264 20 1 13.349724159249474 16.63329192488704 8.078718819502816 0 0 0
4487 21 1 9.22275440527959 19.54062553830614 7.16634823162717 0 0 0
4490 21 1 9.770959318713595 19.184462360366904 11.093293633828063 0 0 0
4488 21 1 9.870325846315254 18.94968684105066 8.440059423473617 0 0 0
4489 21 1 9.332606158815711 19.725780916074232 9.705151164037492 0 0 0
4491 21 1 9.130441560048094 19.715443321938412 12.334842360585537 0 0 0
2021 10 1 6.120356959553663 22.02909002724662 5.86820276966533 0 0 0
2246 11 1 1.8446151161049031 24.06607900994925 6.159064771597839 0 0 0
2471 12 1 6.068587968301999 26.41573200550487 5.7641643127018725 0 0 0
2472 12 1 5.3395813735326145 26.017524502814613 7.043223687471668 0 0 0
2476 12 1 5.448686326611843 25.757691501424482 12.130444683256139 0 0 0
2474 12 1 5.4971135775316435 25.8945561118848 9.560755951370556 0 0 0
2026 10 1 5.217387271968693 21.747793005530383 12.095119406116057 0 0 0
2022 10 1 5.550888987353492 21.54916517456892 7.203388243965474 0 0 0
2024 10 1 5.319798373347282 21.763665904014683 9.614756934691485 0 0 0
2250 11 1 1.7106468291161878 23.79909805614734 11.197598416296296 0 0 0
2023 10 1 6.199376339579739 22.179950563297073 8.42845484436561 0 0 0
2025 10 1 6.161011716630005 21.791424804998385 10.91880606760673 0 0 0
2247 11 1 2.0687783849803014 23.19889724500747 7.386941591214981 0 0 0
2248 11 1 2.050640316873379 23.968447764284324 8.695605038373431 0 0 0
2249 11 1 2.1989082716860526 23.121958759890063 9.95362062762955 0 0 0
2251 11 1 1.5052574580965212 23.003737327727016 12.47862185116277 0 0 0
4932 23 1 9.625747225817538 23.30358481542415 5.9408508210972215 0 0 0
5161 24 1 12.986107233676108 26.370992435902476 9.610404131408858 0 0 0
5163 24 1 12.982401324379888 26.407783032321092 12.154489833585497 0 0 0
5159 24 1 13.128209930294949 26.289764461079443 7.066828760738751 0 0 0
4714 22 1 13.93542749096111 21.638230547640045 10.96496750517927 0 0 0
4712 22 1 13.90158256402928 21.27163068864874 8.403161770950353 0 0 0
5160 24 1 12.88890882443327 25.454780092080483 8.413299168869402 0 0 0
5162 24 1 12.981710353772515 25.593122423868465 10.906274534515 0 0 0
4711 22 1 13.226974054438438 21.552746942469607 7.063472023965124 0 0 0
4713 22 1 13.120039380547468 21.68893373415227 9.652270739184726 0 0 0
4933 23 1 9.226521776014057 24.101765004212748 7.21943954797279 0 0 0
4934 23 1 9.81009326692645 23.47289828465075 8.477464995940498 0 0 0
4935 23 1 9.311557205797039 24.128538360478665 9.79884453212326 0 0 0
4937 23 1 9.143979769275948 24.090003951193673 12.345018482073337 0 0 0
4936 23 1 9.759207827597526 23.38647928163984 11.079989415788823 0 0 0
4715 22 1 13.053547442606462 21.844007244223974 12.184302005530565 0 0 0
12 1 1 2.2909103962093615 1.4682066154132019 14.108763866753756 0 0 0
239 2 1 5.820307641015614 3.59726184650824 13.861018415146358 0 0 0
241 2 1 5.756208493320355 3.642231199541449 16.45532607169432 0 0 0
240 2 1 5.374402608986401 4.332330204191603 15.134723556265758 0 0 0
242 2 1 5.1355927232018 4.336727936803436 17.679607855609824 0 0 0
16 1 1 2.5672225159926976 1.3353388051600057 19.120044463016743 0 0 0
14 1 1 2.475360823674871 1.3591783006368872 16.5575104263007 0 0 0
243 2 1 5.790698072285529 3.8592458947141455 18.978830181678084 0 0 0
462 3 1 1.2370542793201666 5.587025068144403 14.818483549567787 0 0 0
464 3 1 1.292641777345917 5.653207641031031 17.410154898649935 0 0 0
13 1 1 2.02334676579726 0.6324204267236494 15.297144995365358 0 0 0
15 1 1 1.8877462516234291 0.8038029202213708 17.85177992637545 0 0 0
463 3 1 2.0095750054277537 6.037080469275463 16.094773299038362 0 0 0
465 3 1 2.048957540306444 6.01668863193076 18.6747341376555 0 0 0
461 3 1 1.8087382454457532 6.298771591339584 13.553107539223078 0 0 0
466 3 1 1.4526233083548379 5.4475144299769305 19.958738161199847 0 0 0
17 1 1 1.8013206409110383 0.8404848084201504 20.393965924686213 0 0 0
2477 12 1 5.939736392394311 26.32735532867858 13.487762544320038 0 0 0
3147 15 1 9.835262165229551 5.8217358529658 13.541232453768515 0 0 0
2924 14 1 13.805204506021159 3.2712446691581265 13.492856943649675 0 0 0
2700 13 1 9.676523376321564 1.4196863909013353 13.666291705330183 0 0 0
2925 14 1 13.176960651824114 3.947994384381845 14.702032884258868 0 0 0
2927 14 1 13.03061158574811 4.13459482731259 17.26616547472196 0 0 0
2701 13 1 9.049799046783294 1.5898981733436572 15.049718675470686 0 0 0
2703 13 1 9.291819860710614 1.5995727275372014 17.580788443023852 0 0 0
2926 14 1 13.509524227454197 3.3487261835558324 16.068238368003986 0 0 0
2928 14 1 13.23339761153822 3.2813015740481744 18.529861927278766 0 0 0
2702 13 1 10.011534008517877 1.3978628688184063 16.27315823754465 0 0 0
2704 13 1 10.105186564422215 1.264126588041138 18.837110334375453 0 0 0
3149 15 1 9.766481735454626 5.871355785224463 16.123421799299653 0 0 0
3151 15 1 9.783168235485766 5.896380809292874 18.62169057915259 0 0 0
2929 14 1 12.941604786895264 3.9602941111291035 19.84185772949386 0 0 0
3152 15 1 9.261495969234211 6.380073711729306 19.950723347722683 0 0 0
3150 15 1 9.191644417077828 6.563292003768721 17.405582720978543 0 0 0
3148 15 1 9.440342949981494 6.590638497259317 14.813274181557777 0 0 0
2705 13 1 9.458074837386963 1.6870464259335447 20.137933446596552 0 0 0
910 5 1 1.8739785476764728 10.805570485419928 13.535468775732793 0 0 0
685 4 1 5.73978421706341 8.423157351654131 13.749345496735305 0 0 0
688 4 1 5.551787938853706 8.251427910722787 17.58653223585976 0 0 0
686 4 1 5.215020426996635 8.159323092856827 15.1428126356546 0 0 0
912 5 1 2.0332790209310363 10.685432990485698 16.097218209204108 0 0 0
914 5 1 1.973871746381552 10.547715296582139 18.739267426229627 0 0 0
687 4 1 6.174381527895129 8.682764827350987 16.29762701152839 0 0 0
689 4 1 6.326632512998605 8.23791424870983 18.872539485640523 0 0 0
911 5 1 1.4927096531189474 10.098938463843211 14.825438140954503 0 0 0
913 5 1 1.72256679567688 9.854877304787474 17.342061517594313 0 0 0
1136 6 1 5.406234391093487 12.309886545322856 17.37330010189688 0 0 0
1134 6 1 5.521939820138365 12.1165420358682 14.82235281507974 0 0 0
1133 6 1 6.092791917135235 12.76626252704007 13.549879308084503 0 0 0
1137 6 1 5.996049678685647 13.031591104306559 18.571542801158575 0 0 0
1135 6 1 5.796915343069543 12.987948458397415 16.069320256930745 0 0 0
690 4 1 5.494048317219332 7.829922321497544 20.09822118858656 0 0 0
3596 17 1 9.830239764620835 10.231455294305297 13.559041705965726 0 0 0
3820 18 1 14.198325020092902 12.391859830831637 13.178343408985699 0 0 0
3372 16 1 13.800009744534359 7.811536848175628 13.195017042306578 0 0 0
3376 16 1 13.671647678270821 8.058306016700296 18.329226034718637 0 0 0
3374 16 1 13.638841760891738 7.755282518181363 15.809529287737629 0 0 0
3373 16 1 13.23724723879393 8.441318020100113 14.500905748682793 0 0 0
3375 16 1 12.918296088820066 8.31490233567916 17.029887419856944 0 0 0
3599 17 1 9.140836495106567 10.545314475984743 17.403358452670115 0 0 0
3597 17 1 9.024547918841355 10.59277521677905 14.80767392343244 0 0 0
3598 17 1 9.881676459998651 10.59983698666125 16.080833460219964 0 0 0
3600 17 1 10.06497223363061 10.441046909726582 18.61123475966638 0 0 0
3824 18 1 13.931069904403133 12.178125291746126 18.30274148642791 0 0 0
3822 18 1 13.993570090114606 12.091639195855139 15.769808019750037 0 0 0
3823 18 1 13.513947155243446 12.87163358295081 16.97628758355804 0 0 0
3821 18 1 13.560977769627392 12.803912708309966 14.527908508757264 0 0 0
3825 18 1 13.580778490610248 12.793391346232818 19.64100324800287 0 0 0
1804 9 1 2.3335333316427356 19.14519029101735 13.868606839789152 0 0 0
1579 8 1 6.417119065600539 16.726693146441463 13.587632783920862 0 0 0
1356 7 1 2.5064289333947545 15.057347475563285 13.572485954259799 0 0 0
1359 7 1 1.621143614733426 14.498372844718247 17.404545420984523 0 0 0
1357 7 1 1.8144853296915708 14.561919286924438 14.831518573678 0 0 0
1360 7 1 2.30995704890715 14.692695848185592 18.760558798469578 0 0 0
1358 7 1 2.4386214702549602 14.859000582557421 16.17880647156195 0 0 0
1580 8 1 5.574231081122936 16.953228161483768 14.836552701221386 0 0 0
1583 8 1 6.431796646881859 16.76122175466306 18.680653821424684 0 0 0
1582 8 1 5.640321482504099 17.006919360136266 17.396540537928196 0 0 0
1581 8 1 6.421363966632177 16.984999288415278 16.09732665239037 0 0 0
1805 9 1 1.5442887476167462 19.069004560914493 15.195799164263317 0 0 0
1807 9 1 1.6564450200196101 18.663309626469538 17.635173394197682 0 0 0
1806 9 1 2.413186265209994 19.175115831971173 16.414040580836435 0 0 0
1808 9 1 2.4878076660577544 18.964924461342402 18.874359060320344 0 0 0
1361 7 1 1.4717996365626325 14.328701908901067 19.95472970233114 0 0 0
1809 9 1 1.7456100932226402 18.533761435084404 20.15360448147287 0 0 0
1584 8 1 5.606770755606679 16.872725122834467 19.94536583481995 0 0 0
4044 19 1 9.93216341281327 14.314471720297874 13.4061703203883 0 0 0
4492 21 1 9.69134174264445 19.011161637629545 13.589555849588152 0 0 0
4268 20 1 13.569331748823219 16.808785362791927 13.177966399898677 0 0 0
4048 19 1 9.871579481842108 14.690107510025808 18.38852760225698 0 0 0
4046 19 1 9.61776207765609 14.66781685028008 15.861863274483238 0 0 0
4270 20 1 13.501049025835751 16.658701711779297 15.76974562134544 0 0 0
4045 19 1 10.082766714578504 15.261011945453957 14.550348608117993 0 0 0
4047 19 1 10.368627289762914 15.27243823674461 17.067092624502227 0 0 0
4269 20 1 13.185816843077424 17.47005942327868 14.540103481140704 0 0 0
4271 20 1 13.23117884366527 17.321058955037344 17.115868549954754 0 0 0
4272 20 1 13.506658535144757 16.447057882938026 18.349175680768663 0 0 0
4049 19 1 10.470915270966087 15.16928564059245 19.683747532530543 0 0 0
4496 21 1 9.764513625486162 19.054778872263977 18.52795967675271 0 0 0
4494 21 1 9.73970888644367 18.985249312560793 16.09319174587871 0 0 0
4495 21 1 9.012720004434858 19.588275274180894 17.30838038693728 0 0 0
4273 20 1 13.373535592685322 17.37658241620159 19.58210869014114 0 0 0
4497 21 1 9.313866469774894 19.673745118675512 19.820430071779658 0 0 0
4493 21 1 9.187595191493198 19.65583890729646 14.876846952511322 0 0 0
2479 12 1 5.944984670514561 26.3279186114761 15.906401509789724 0 0 0
2027 10 1 6.0352956100263295 21.754299154742338 13.413191071262508 0 0 0
2481 12 1 6.166868346645592 26.32804069987183 18.48054458370104 0 0 0
2252 11 1 1.8980143120865276 23.654822570167294 13.80856460867252 0 0 0
2478 12 1 5.198447617066087 25.774843196885495 14.66060105651247 0 0 0
2480 12 1 5.574165485448034 25.719210832469436 17.226301673086123 0 0 0
2030 10 1 5.241303400032332 21.559454543988927 17.280615017149522 0 0 0
2028 10 1 5.2729528659010185 21.493595121188935 14.682623896308694 0 0 0
2029 10 1 6.0680393051895765 21.715202146464613 15.985880110611621 0 0 0
2254 11 1 1.9604942180562022 23.726788764848248 16.28769959747454 0 0 0
2256 11 1 1.9795183866940769 23.8530011251454 18.78658960183073 0 0 0
2253 11 1 1.8217078385565713 22.88547511209761 15.040050781298937 0 0 0
2031 10 1 6.135889143931361 21.670668682659276 18.50753135882601 0 0 0
2255 11 1 1.829955930568654 22.93814101866155 17.546417113231318 0 0 0
2482 12 1 5.648995892437351 25.51247138477497 19.718285120800378 0 0 0
2257 11 1 1.8014896352605594 23.05574912677815 20.028423987720412 0 0 0
2032 10 1 5.4811344023010395 21.343995753100554 19.859797099480115 0 0 0
4716 22 1 13.765576452495912 21.631954911318427 13.531483452140622 0 0 0
5167 24 1 12.899655186459267 26.087203996365826 17.30039447389519 0 0 0
5165 24 1 12.937603578293759 26.28977621342412 14.72816577387663 0 0 0
4938 23 1 9.69202903706315 23.583718767364406 13.640039648844516 0 0 0
5164 24 1 13.139230935657785 25.508109077786717 13.420019365387846 0 0 0
4718 22 1 13.83673280802558 21.316729520293425 15.998832359711741 0 0 0
4720 22 1 13.639624284965967 21.486544108353645 18.504111183935475 0 0 0
5168 24 1 13.607040693903427 25.4066192514823 18.483626589588237 0 0 0
5166 24 1 13.197110106873867 25.429664457605888 15.97533486312572 0 0 0
4719 22 1 12.991683374936603 20.995551452508185 17.211676702646294 0 0 0
4717 22 1 12.926432230791356 21.523631506318335 14.76765347560903 0 0 0
4941 23 1 9.030474678615724 24.19428451246572 17.436409527174202 0 0 0
4939 23 1 9.26682548261925 24.33684541664093 14.938932446756393 0 0 0
4940 23 1 9.595656251598253 23.528016932931934 16.173384423099154 0 0 0
4942 23 1 9.42604530766531 23.50084137472861 18.668156361315713 0 0 0
5169 24 1 13.262468320370697 25.992138744447036 19.878300105488304 0 0 0
4943 23 1 9.32046642958556 24.15395778786888 20.050024069398685 0 0 0
4721 22 1 12.907894912784675 21.422712791921008 19.854433273242016 0 0 0
244 2 1 5.257443761327198 4.405717473317035 20.322735646727494 0 0 0
247 2 1 6.21760941357635 3.1906603170368215 24.027815630580736 0 0 0
245 2 1 6.058331721412265 3.6532172456895693 21.465611931684773 0 0 0
248 2 1 5.616155395345589 3.752840909248334 25.339121923220187 0 0 0
246 2 1 5.511725670139564 3.957557925620063 22.858442848294697 0 0 0
18 1 1 2.451690313098131 1.3114867754535189 21.647169907364926 0 0 0
22 1 1 2.492568665716201 1.152936636303692 26.59400515958555 0 0 0
249 2 1 6.20627224330172 3.1322938083781064 26.58295045770799 0 0 0
20 1 1 2.594121815692666 1.1589049907689264 24.162993412619063 0 0 0
468 3 1 1.4946571504642545 5.18453977823087 22.593576123314616 0 0 0
470 3 1 1.5762677407650452 5.286303003891327 25.16049880438258 0 0 0