LAMMPS data file via write_data, version 29 Oct 2020, timestep = 34000000

10752 atoms
2 atom types
10752 bonds
3 bond types
10752 angles
3 angle types
10752 dihedrals
3 dihedral types

-0.13556184787883474 31.003481847862822 xlo xhi
-0.11712911291988881 26.787849112882817 ylo yhi
-1.242840987913496 284.24220098724453 zlo zhi

Masses

1 14
2 15

Pair Coeffs # lj/cut/omp

1 0.0914 3.95
2 0.1947 3.75

Bond Coeffs # harmonic/omp

1 449.5 1.53
2 449.5 1.53
3 449.5 1.53

Angle Coeffs # harmonic/omp

1 62.0967 114
2 62.0967 114
3 62.0967 114

Dihedral Coeffs # opls/omp

1 1.411 -0.271 3.145 0
2 1.411 -0.271 3.145 0
3 1.411 -0.271 3.145 0

Atoms # molecular

230 2 1 5.493181034609184 4.148569041551 2.118044861657602 0 0 0
231 2 1 6.2415697388989315 4.392319212660371 3.4292489814752214 0 0 0
229 2 1 6.27486637117967 4.022110391134211 0.8022024326991306 0 0 0
232 2 1 5.441336816016397 3.9495454627291124 4.690052405568752 0 0 0
4 1 1 2.095626555018022 1.7923767803687647 3.242813310304636 0 0 0
454 3 1 1.588617100749898 5.765492279585491 4.453737747013943 0 0 0
2 1 1 2.095464075451911 1.6830861698582387 0.6647006222718241 0 0 0
452 3 1 1.2359774259105485 5.860292121454817 1.8524374751951127 0 0 0
228 2 1 5.46744469107373 3.9635785120964195 -0.4945830362994511 0 0 0
1 1 1 1.3155832172700583 1.2333451594449103 -0.56861790498672 0 0 0
3 1 1 1.3319343095496163 1.5039179067821948 1.9423954037417293 0 0 0
5 1 1 1.2730836363750935 1.557801243696481 4.517160688230073 0 0 0
450 3 1 1.3521757404009653 5.6013369366593 -0.7472559851564475 0 0 0
451 3 1 2.0664234748684973 6.070125363339369 0.532782587354067 0 0 0
453 3 1 2.084319978593972 6.280110556338626 3.1331213562126257 0 0 0
455 3 1 2.3236946154963114 6.244560642457064 5.681286950685205 0 0 0
6 1 1 2.132741203585825 1.3512900964024137 5.723811347034562 0 0 0
233 2 1 6.123576552737877 4.175904019621091 6.021624405076203 0 0 0
2693 13 1 9.668032610279118 2.044280738154418 4.6953936157686 0 0 0
2691 13 1 9.549893834959567 2.0667146469068283 2.0979224924561275 0 0 0
2915 14 1 13.45814783999851 4.3189495595523075 2.024211497886681 0 0 0
2917 14 1 13.607005396580234 4.134764895636341 4.592124987961456 0 0 0
2914 14 1 13.797262141662152 3.6294184047461155 0.7895505660972009 0 0 0
2916 14 1 14.033144332361005 3.5159231462270584 3.260118414428038 0 0 0
2692 13 1 9.989840327882172 1.305704730002891 3.3896462013374045 0 0 0
2690 13 1 10.326588647056868 1.5568009529907085 0.8635383618594523 0 0 0
2913 14 1 13.605084623814498 4.4228582133582 -0.5476269608930017 0 0 0
2689 13 1 9.668815472009012 1.983133613454645 -0.43725272713330776 0 0 0
3139 15 1 9.990492936410941 5.766018802136423 3.272671546400815 0 0 0
3137 15 1 10.064810616741301 5.938882009547528 0.6981272455689143 0 0 0
3140 15 1 9.555447406281132 6.477594404402506 4.528459150931265 0 0 0
3360 15 1 9.191000091315212 6.162457185112877 -0.5554326613671744 0 0 1
3138 15 1 9.266689562015607 6.246019820457938 1.9931933530782304 0 0 0
2918 14 1 14.061705727115482 3.27559590159067 5.744161770430724 0 0 0
2694 13 1 10.15135361300976 1.3264286815560933 5.94235231777043 0 0 0
676 4 1 5.325246891900773 7.997326728682173 1.6906890677193904 0 0 0
678 4 1 5.453473346473436 8.117421898679664 4.162983994124102 0 0 0
677 4 1 5.030415776888516 8.855779073368401 2.9187834735113283 0 0 0
675 4 1 5.738126121550829 8.893310079802177 0.5052762097196843 0 0 0
900 5 1 1.4972635738102644 10.657632024182472 0.8224895755657733 0 0 0
902 5 1 1.4576306890873134 10.777180729262119 3.343075701313987 0 0 0
901 5 1 1.3716422331118632 9.871900602709061 2.161787540936214 0 0 0
903 5 1 1.541079205438765 10.183753807938565 4.787303048094005 0 0 0
899 5 1 1.5821567142912092 9.825423667660488 -0.4800438588795277 0 0 0
674 4 1 5.791893236075949 8.225186025659573 -0.8484052669496356 0 0 0
1122 6 1 5.004776249547655 12.999953085856678 -0.5159048575188103 0 0 0
1126 6 1 5.167680156069529 13.01499554282003 4.4710083166183825 0 0 0
1124 6 1 5.174646760552477 12.972337303694445 1.970719407480078 0 0 0
1125 6 1 5.731932821352297 13.628980144833978 3.2239638561484645 0 0 0
1123 6 1 5.796247799114389 13.522236769903655 0.6617094044296989 0 0 0
904 5 1 1.5983616383679147 10.978268023310136 6.077858434813331 0 0 0
3362 16 1 13.614078829005686 8.024940203043288 0.9326679774291873 0 0 0
3364 16 1 13.741096901322447 8.011921367090546 3.457319066079675 0 0 0
3589 17 1 9.167791716446628 10.796947294247934 4.765511776268112 0 0 0
3365 16 1 13.264306286368498 8.583678625082854 4.780104314540743 0 0 0
3363 16 1 12.946133944819216 8.380353144752933 2.178231229603695 0 0 0
3587 17 1 9.207880473390038 10.87585733673634 2.2239102683543455 0 0 0
3588 17 1 9.781971664670785 10.283568321224656 3.5314780763631273 0 0 0
3586 17 1 9.651813730847863 10.09749318997023 0.9926711317207855 0 0 0
3361 16 1 12.928770241066983 8.446462786740192 -0.3143401637746236 0 0 0
3585 17 1 8.863569432553147 10.665276040695906 -0.24211050571624404 0 0 0
3812 18 1 13.801627199953483 12.437380703736393 3.693300469992254 0 0 0
3810 18 1 13.6209445943111 12.957818275778836 1.1537781741212738 0 0 0
3813 18 1 13.006820288437602 12.542436130929149 4.973617618239123 0 0 0
3811 18 1 12.898430217911065 12.612270553798849 2.4584772323607833 0 0 0
3809 18 1 12.762989236244554 12.6603255536514 -0.05599167726128895 0 0 0
3814 18 1 13.787275377728182 12.112502437828955 6.222449290237855 0 0 0
3590 17 1 9.777636166516338 10.298531319275078 6.063246413739018 0 0 0
3366 16 1 13.872633084236714 7.83723340406493 5.98720402246988 0 0 0
1347 7 1 1.1586517585190095 14.37308464106846 2.5019312957652864 0 0 0
1349 7 1 1.3068082493838937 14.374546235915968 5.011147179896913 0 0 0
1348 7 1 1.6726740975041954 15.158918489222039 3.7556852318739367 0 0 0
1346 7 1 1.5253915739523973 15.061585762158552 1.1658052714290994 0 0 0
1570 8 1 5.014229589249728 17.18394689612363 2.1023247130591414 0 0 0
1572 8 1 5.289550648382659 17.45184468695284 4.653026665113529 0 0 0
1571 8 1 5.808383695112614 17.810916289707492 3.250268005579323 0 0 0
1569 8 1 5.621894560135217 17.72593168099789 0.759890897574472 0 0 0
1795 9 1 1.1464163579299531 18.905687148067983 2.175484632732125 0 0 0
1797 9 1 1.5956896735082189 19.1363636767351 4.748703196694952 0 0 0
1793 9 1 1.1063976809056018 18.664209123418814 -0.4838980690573419 0 0 0
1345 7 1 0.776125042336324 14.48894779031839 -0.08038146143753488 0 0 0
1794 9 1 1.675808003198537 19.300030528854336 0.7875039456160358 0 0 0
1796 9 1 1.9141497048581235 19.60514584897028 3.3188509534853 0 0 0
1792 8 1 5.130464123636954 16.913222414789182 -0.4357939127602778 0 0 1
1350 7 1 1.9194320297039988 15.047579872725127 6.2277806680345975 0 0 0
1798 9 1 2.2522171929908104 19.85793648539085 5.993036991510478 0 0 0
1573 8 1 6.115037875178063 17.77872855836553 5.888033849374034 0 0 0
4033 19 1 9.723639100461428 14.667183071384644 0.8006905108651958 0 0 0
4034 19 1 9.279366684193677 15.475916201752423 1.9788781233100927 0 0 0
4036 19 1 9.363661622333506 15.869104852571807 4.55547400758327 0 0 0
4035 19 1 9.660669818370861 14.89498231716839 3.4014561181054406 0 0 0
4258 20 1 13.334905605581195 16.454441710320694 1.178117541323124 0 0 0
4259 20 1 13.19909133002849 17.487379308851196 2.3706893070235306 0 0 0
4261 20 1 13.14986323124347 17.81486014404885 4.981214344431257 0 0 0
4260 20 1 13.394001499997092 16.864119458779626 3.793928975693266 0 0 0
4257 20 1 13.2289000813595 17.111075722217194 -0.24329196463887282 0 0 0
4484 21 1 9.744650490595658 19.280316056656083 3.307593218798355 0 0 0
4482 21 1 10.017339675607182 19.184633391852472 0.7725161793120443 0 0 0
4483 21 1 9.435983464194294 19.94621215397106 1.967030318704734 0 0 0
4485 21 1 9.543122538567271 20.19095549100468 4.561183002778293 0 0 0
4481 21 1 9.382032309717047 19.73483154337795 -0.4974159133973437 0 0 0
4256 19 1 8.97504114395771 15.28110649568561 -0.38060697390415454 0 0 1
4262 20 1 13.290729346481038 16.963891199166454 6.267606570763447 0 0 0
4486 21 1 9.798887759052478 19.608759496598267 5.953325824945901 0 0 0
4037 19 1 9.627579539719857 15.142143207675048 5.8975599573944635 0 0 0
2467 12 1 6.146619822055291 26.40713608695596 0.6548250179795649 0 0 0
2469 12 1 6.189240613554466 26.648434706161183 3.1326507331465496 0 0 0
2466 12 1 5.539652573540732 25.871658189874964 -0.5714875277764794 0 0 0
2470 12 1 5.434990115013385 26.256779772729573 4.3802557994910725 0 0 0
2468 12 1 5.448966390911482 26.06226488910687 1.9610362290467465 0 0 0
2018 10 1 5.323664599399732 21.438509831084673 2.2142560460495453 0 0 0
2245 11 1 1.7745277494466576 23.66502663995327 4.166041058520219 0 0 0
2020 10 1 5.285744241836994 21.744644958795718 4.768828409787233 0 0 0
2019 10 1 5.592734081109797 22.388610153768752 3.4422813727848913 0 0 0
2244 11 1 2.0112657543987145 24.559753675720202 2.9757542864996473 0 0 0
2242 11 1 1.984390901645928 24.462394399329945 0.3950651156785645 0 0 0
2017 10 1 5.964522515352848 21.939771706645985 0.9044268391601444 0 0 0
2243 11 1 1.7969515112520082 23.701717376474512 1.6611487606701663 0 0 0
2241 11 1 2.057380176866146 23.64930015257884 -0.9312608971041652 0 0 0
2240 10 1 5.302430083948345 21.243813256555093 -0.33189494463327984 0 0 1
2021 10 1 5.575155527535066 22.503514913063057 6.058418654716537 0 0 0
2471 12 1 6.062405493631836 -0.09291339216579786 5.625863837620084 0 1 0
2246 11 1 1.658658455190254 24.513282605357155 5.492287872493026 0 0 0
5157 24 1 13.69928313811735 26.268664560532244 4.553711435848193 0 0 0
5155 24 1 13.958398386765227 26.181795046837713 2.0887991595586954 0 0 0
5153 24 1 13.760457993778981 26.346668587881013 -0.5037054693238407 0 0 0
4706 22 1 13.727958074859057 21.45243551436925 0.7223346714583985 0 0 0
5156 24 1 13.57420464196142 25.37446785261195 3.3023064177355073 0 0 0
5154 24 1 13.631328615105327 25.4553230220059 0.7358017541978896 0 0 0
4708 22 1 13.825777329690617 21.420999580180677 3.2796008321837364 0 0 0
4709 22 1 13.05767506178319 21.61288075036984 4.586009749014412 0 0 0
4929 23 1 9.062930303716172 24.445989643121173 2.2945489518976 0 0 0
4931 23 1 9.128056038355615 24.46823625838406 4.854410272474438 0 0 0
4930 23 1 9.666531343865522 23.87608075801323 3.5754148484510893 0 0 0
5152 23 1 9.640619400013462 23.76469079825101 1.08468264626869 0 0 1
4707 22 1 12.923502887088297 21.325163055599077 2.0078485609295105 0 0 0
5151 23 1 9.131930178101713 24.365209863707975 -0.21448815971754365 0 0 1
4705 22 1 12.844914304673456 21.32200019882179 -0.5043299727568821 0 0 0
4932 23 1 9.971696101338376 24.10927906070127 5.99216009408299 0 0 0
4710 22 1 13.79838307113243 21.207566967993422 5.8784042549954245 0 0 0
236 2 1 5.339298017183606 3.4267322587286912 9.723230280541241 0 0 0
234 2 1 5.537792412952561 3.466579635441324 7.262453101880292 0 0 0
235 2 1 6.155426267251099 3.9987759530898916 8.555851616233747 0 0 0
237 2 1 5.9622488613792735 3.618937127312355 11.124900007570314 0 0 0
8 1 1 2.1251219683476905 1.331876411681008 8.33131584810574 0 0 0
10 1 1 2.149464851299646 1.5851128469521583 10.80895257162943 0 0 0
238 2 1 5.1887677293975365 3.398161135308301 12.410561706551556 0 0 0
460 3 1 1.2050708769750602 6.17128011147803 12.056220643945606 0 0 0
458 3 1 1.5155034907096645 5.731691862192509 9.503481678436064 0 0 0
456 3 1 1.8037230158427102 5.627164962411673 6.979980085177761 0 0 0
457 3 1 2.3967099736530635 6.12499413550693 8.30786748394741 0 0 0
459 3 1 2.0156486669828455 6.413826593993679 10.806856058646549 0 0 0
11 1 1 1.44507173751385 1.9151301448578 12.097249972552097 0 0 0
7 1 1 1.2995784719172079 1.50248679470032 7.039223573483836 0 0 0
9 1 1 1.3390356021455192 1.6956208533630872 9.57561854825671 0 0 0
3141 15 1 9.948746067085779 5.8260183341908975 5.841769228321642 0 0 0
2921 14 1 13.086529014010962 3.6937442290837224 9.431626009712598 0 0 0
2919 14 1 13.2502756994866 3.6377595119350015 7.006321442438772 0 0 0
2923 14 1 12.974529857528793 3.8270913367783748 12.075091445521501 0 0 0
2695 13 1 9.651523554219018 2.031564882439138 7.172208712990317 0 0 0
2697 13 1 9.389121398339428 1.92481193949794 9.70237487079113 0 0 0
2922 14 1 13.758712889267263 3.5288651825315878 10.786008180824227 0 0 0
2920 14 1 13.853916379544636 3.1755601602487418 8.269207888111353 0 0 0
2696 13 1 9.933753817178392 1.220944153051478 8.454681164470069 0 0 0
2699 13 1 9.55462487658573 1.9638818709221906 12.231334361858703 0 0 0
2698 13 1 10.069225046815696 1.3659659442584893 10.936820658230953 0 0 0
3145 15 1 9.953500583732039 6.1934812269629305 10.774053991047484 0 0 0
3143 15 1 9.896090689149856 6.012286505468514 8.374818751872047 0 0 0
3144 15 1 9.252571779625985 6.761471332350896 9.566225758572095 0 0 0
3142 15 1 9.353981685997361 6.517078746540949 7.062474744085055 0 0 0
3146 15 1 9.41216833481548 6.770045678015174 12.105065579861495 0 0 0
1127 6 1 5.850778155348785 13.344289377542731 5.7329879041263485 0 0 0
679 4 1 5.145176143254273 8.862522847163358 5.484057003325462 0 0 0
682 4 1 5.710759996455747 8.104870647051483 9.22044104202056 0 0 0
680 4 1 5.492030978414479 8.146829087572396 6.763719706382997 0 0 0
684 4 1 5.519373233426729 7.918807532122212 11.739396214711382 0 0 0
683 4 1 5.453858010510754 8.803378550843423 10.519484687317068 0 0 0
681 4 1 5.401796223049264 8.986191432728287 8.056145587040131 0 0 0
906 5 1 1.3777585805341512 11.045508694612206 8.60048995165133 0 0 0
908 5 1 1.6326324540379002 11.010488865131592 11.108779564884655 0 0 0
907 5 1 1.996279188521859 10.332856395215783 9.784017395064788 0 0 0
905 5 1 1.5731197839497428 10.183617786692727 7.375755354014917 0 0 0
909 5 1 2.0069554407376464 10.181172492932577 12.398493052880317 0 0 0
1128 6 1 5.110035687633908 13.161055461095014 7.0988947558616395 0 0 0
1130 6 1 5.140733012289522 13.198907004434474 9.669969174762862 0 0 0
1132 6 1 5.146767787942084 12.811844042430856 12.221150948928699 0 0 0
1129 6 1 5.925587847480181 13.333782972006551 8.37876070269366 0 0 0
1131 6 1 5.900000380442696 13.293333458109805 10.999479455355363 0 0 0
3370 16 1 13.78036412563314 7.864551219900625 11.112473538009711 0 0 0
3368 16 1 13.88425603170165 7.856317468928837 8.643655993563316 0 0 0
3369 16 1 13.294289845479161 8.518055869322586 9.864136926888815 0 0 0
3367 16 1 13.453258976864127 8.527970319368132 7.332334783134385 0 0 0
3593 17 1 9.21095628375866 11.151238818129507 9.851376841727506 0 0 0
3591 17 1 9.23994454129839 11.070870143047314 7.2321067722030605 0 0 0
3592 17 1 9.853489288993273 10.549162934877767 8.535491384597098 0 0 0
3594 17 1 9.734465636875044 10.465064164161182 11.059864577416732 0 0 0
3595 17 1 9.294135649334782 11.111462716354646 12.366483402545379 0 0 0
3818 18 1 13.95236902997177 12.320656951350733 11.396485358773603 0 0 0
3371 16 1 13.276463539736895 8.303953238594865 12.46993563339216 0 0 0
3816 18 1 13.862232763302622 12.138816117969311 8.898352339448556 0 0 0
3817 18 1 13.106770034328946 12.423297765591398 10.192156112443074 0 0 0
3819 18 1 13.38487457831906 12.939868480617921 12.676090688355899 0 0 0
3815 18 1 13.115361882148528 12.486715173737451 7.5399968934988735 0 0 0
1351 7 1 1.4200985123463654 14.585803637123576 7.63733565255813 0 0 0
1353 7 1 1.2588497894588921 14.853194469743798 10.126667635164457 0 0 0
1355 7 1 1.3069306492404285 14.897588161528278 12.72041302578087 0 0 0
1354 7 1 2.047895581932487 15.107381155668685 11.388496940015209 0 0 0
1352 7 1 2.068664238573918 15.256544955391469 8.847831301007082 0 0 0
1574 8 1 5.4350323612588065 17.398053819172112 7.127490235916431 0 0 0
1576 8 1 5.307620190236458 17.48413547243979 9.717902879895451 0 0 0
1575 8 1 6.087725341848654 17.91309261278076 8.446294128688685 0 0 0
1577 8 1 5.975014153883795 17.949981249060478 11.05836863803486 0 0 0
1578 8 1 5.310833057572708 17.5632008367143 12.418833174281746 0 0 0
1799 9 1 1.5597698599366778 19.277002162823408 7.272832997276803 0 0 0
1803 9 1 1.4291666517219492 19.064010539983038 12.293560191747467 0 0 0
1801 9 1 1.5080108344798422 19.143777981927187 9.766573171572013 0 0 0
1800 9 1 2.1720435436049605 19.691182598347567 8.538777343134196 0 0 0
1802 9 1 2.047059015817741 19.720319017651306 11.044055421142632 0 0 0
4041 19 1 9.498944926349548 14.948853567567117 10.91460573502771 0 0 0
4038 19 1 9.064026601336426 15.754647442763366 7.22384181979856 0 0 0
4040 19 1 8.97711955018665 15.614464328592723 9.653749674847706 0 0 0
4042 19 1 8.964272675504862 15.54137784087703 12.196848190194206 0 0 0
4039 19 1 9.498651298962123 14.922275037944583 8.427636271099797 0 0 0
4265 20 1 13.675305416583676 17.341315625042256 10.162959390643394 0 0 0
4263 20 1 13.348612995483245 17.67784975727556 7.648156799568692 0 0 0
4267 20 1 13.68308375273854 17.525342204778326 12.635956547332908 0 0 0
4266 20 1 13.441336309990167 16.626521258003855 11.461607262909183 0 0 0
4264 20 1 13.388381081674058 16.697048305207325 8.78371940414401 0 0 0
4490 21 1 9.815934200550096 19.598012756989725 11.049135348187235 0 0 0
4488 21 1 9.617625141912448 19.493216962741656 8.461573500134435 0 0 0
4491 21 1 9.234300906350855 20.200341603892 12.312761930688128 0 0 0
4487 21 1 9.244125576755074 20.239389469559406 7.221044604258838 0 0 0
4489 21 1 9.255438007725294 20.19020949442799 9.7994970695337 0 0 0
2473 12 1 6.266422633902372 26.36393575959709 8.150514370150825 0 0 0
2475 12 1 6.231712078452894 26.56966599251193 10.709100162041768 0 0 0
2476 12 1 5.338930471713032 26.670137650798594 11.906135453148767 0 0 0
2474 12 1 5.44209000946205 26.244952650631355 9.477018580995187 0 0 0
2472 12 1 5.449957084540409 26.313728237732292 6.88354873659093 0 0 0
2022 10 1 5.078290612919255 21.992785249871474 7.304250678465751 0 0 0
2024 10 1 4.954159754085835 22.185072355793373 9.838041578791556 0 0 0
2250 11 1 1.4511516536080948 24.41730884349724 10.58771677862039 0 0 0
2251 11 1 1.2364816788236719 23.590452772447456 11.883069905661555 0 0 0
2023 10 1 5.74106792690826 22.535087122600473 8.571604175802133 0 0 0
2025 10 1 5.601384024505683 22.70005311898136 11.113881275184111 0 0 0
2247 11 1 1.2641141903126103 23.692121091981882 6.766438139729093 0 0 0
2248 11 1 1.6284036871219658 24.43666942580979 8.103147981565247 0 0 0
2249 11 1 1.0434961816667174 23.685022520932243 9.315616002230895 0 0 0
2026 10 1 4.979130933351412 22.232843808843413 12.489301207128678 0 0 0
5158 24 1 13.307541447050417 25.551784104666794 5.816217267054222 0 0 0
5159 24 1 13.729833490307048 26.34220668280873 7.078025736305408 0 0 0
5163 24 1 13.588131543722373 26.33541320028202 12.220897579701045 0 0 0
5161 24 1 13.854981903551018 26.37440712497063 9.616383944089897 0 0 0
5162 24 1 13.840595681041837 25.516115865912433 10.925690051175906 0 0 0
5160 24 1 13.603470311224942 25.523421946415333 8.324867132931024 0 0 0
4714 22 1 13.78891925644774 21.121164720077992 10.948264012027693 0 0 0
4712 22 1 13.755205241811042 21.121450462634073 8.394099881375196 0 0 0
4711 22 1 12.986385758800328 21.55232631290027 7.141020040284708 0 0 0
4713 22 1 13.013629891866891 21.409883015435575 9.690643299216838 0 0 0
4933 23 1 9.360583493893145 24.530199075882997 7.306313514752672 0 0 0
4934 23 1 9.907766942593412 23.81139033737857 8.49862009526141 0 0 0
4935 23 1 9.251455378727787 24.3324362888715 9.786403959594288 0 0 0
4937 23 1 9.129886883374112 24.38976359652971 12.38402308626758 0 0 0
4936 23 1 9.855386476722193 23.83739342524533 11.109944247103867 0 0 0
4715 22 1 13.036368425037361 21.57270384735731 12.19158407984339 0 0 0
4938 23 1 9.846333088577717 24.03427705406863 13.720199682866454 0 0 0
12 1 1 2.2268000794705434 1.4893517539999093 13.366338565316903 0 0 0
239 2 1 6.065850227704935 3.687965988756004 13.607885102388757 0 0 0
461 3 1 1.9257525460134408 6.622188124541769 13.277608035606928 0 0 0
241 2 1 5.952751351481056 3.853431293948313 16.119609392060887 0 0 0
240 2 1 5.151135021759069 3.7225872791013956 14.876281709470057 0 0 0
242 2 1 5.187777764925508 4.005803197010331 17.406439735316884 0 0 0
16 1 1 2.34396573346746 1.4552174207998598 18.40674948099075 0 0 0
14 1 1 2.1953341053260704 1.4717319242143814 15.96973249565341 0 0 0
243 2 1 6.082421267095504 4.041365451287849 18.695383040198152 0 0 0
462 3 1 1.3276164827656243 6.125318674602415 14.600938773914752 0 0 0
464 3 1 1.420866590177916 6.045150908605309 16.988215378907192 0 0 0
15 1 1 1.4823640980993598 1.896461227160895 17.233534766371143 0 0 0
13 1 1 1.5195208282273276 1.9174051262550051 14.7027365342477 0 0 0
463 3 1 1.9937906703154549 6.6846781988927555 15.838806200434714 0 0 0
17 1 1 1.684853967240742 1.7989997007245535 19.75069724867789 0 0 0
465 3 1 1.9585916233133855 6.526226516548307 18.33565458295421 0 0 0
244 2 1 5.3461759446670785 4.111199519497188 20.075012162479467 0 0 0
466 3 1 1.3590234398652943 5.773113744423251 19.593408096497292 0 0 0
2924 14 1 13.71851083985098 3.43689058406488 13.3737542326254 0 0 0
2700 13 1 10.01273760099689 1.3851660559794998 13.581523551507848 0 0 0
2925 14 1 13.065841932170153 3.8666666151843594 14.67699788359992 0 0 0
2927 14 1 13.16794577674683 3.70610522449242 17.316945849803396 0 0 0
2701 13 1 9.41091216567151 2.016902893853341 14.810348036866916 0 0 0
2703 13 1 9.440041029567551 2.1235401715085302 17.274031235205296 0 0 0
2926 14 1 13.902071106417914 3.521014553031623 15.934566480576734 0 0 0
2928 14 1 14.165027237928662 3.628965371890659 18.49433301419476 0 0 0
2702 13 1 9.86505125986284 1.3062172716292022 16.03203618670258 0 0 0
2704 13 1 10.177219032340036 1.6101413925099324 18.465871570936795 0 0 0
3147 15 1 9.960697945040774 6.178483608853091 13.414026828979509 0 0 0
2929 14 1 13.403157952628215 3.6024922348607293 19.82454194338171 0 0 0
2705 13 1 9.507272818379755 1.8486264478262162 19.832150190031246 0 0 0
3149 15 1 10.063826938511932 6.135675016511322 16.0107696260801 0 0 0
3151 15 1 9.886802677360045 5.856003166722443 18.435248279488146 0 0 0
3152 15 1 9.267570769899555 6.290570025811172 19.692080872545088 0 0 0
3150 15 1 9.45330425506304 6.721447291244471 17.2643274309998 0 0 0
3148 15 1 9.37938518181393 6.723889754642732 14.75997957802733 0 0 0
1133 6 1 6.001425221050528 12.976427317914924 13.470325551336934 0 0 0
910 5 1 1.8112633326205732 10.881254449657806 13.656798850978992 0 0 0
685 4 1 5.627242545505008 8.612935225901378 13.081746463979849 0 0 0
688 4 1 5.807006012302746 7.692030041621902 16.987780987414766 0 0 0
686 4 1 5.628496984020499 7.717878055529871 14.28239299291003 0 0 0
912 5 1 2.0557819696374118 11.022857370720978 16.300117646399 0 0 0
914 5 1 2.1369466629478113 11.042842897215941 18.90148402178171 0 0 0
687 4 1 5.664916729757457 8.503325292252809 15.63748777476474 0 0 0
689 4 1 5.787136390253501 8.6200142330818 18.191765626602667 0 0 0
911 5 1 2.1656765039118455 10.245790979055318 14.974070305436506 0 0 0
913 5 1 2.194304010853385 10.240743556826441 17.601810510979433 0 0 0
1134 6 1 5.229309950177792 12.70495167380312 14.824620888658405 0 0 0
1136 6 1 5.377546907092794 12.471716798572187 17.351026467973995 0 0 0
1137 6 1 6.040787112220597 12.839458087209142 18.67650063799769 0 0 0
1135 6 1 6.166149052194296 12.634901317592792 16.027545530155525 0 0 0
915 5 1 2.306398974650709 10.146578347945223 20.119861296126746 0 0 0
1138 6 1 5.430417862079913 12.34678915742238 20.014820416559456 0 0 0
690 4 1 5.782370338790157 7.875120373666171 19.502572321287733 0 0 0
3372 16 1 13.875935661169251 7.590053660017546 13.619628419390013 0 0 0
3596 17 1 10.025658194677707 10.639579969793935 13.59645239643591 0 0 0
3820 18 1 14.048791565137178 12.551943108897259 14.012961258167703 0 0 0
3374 16 1 13.9612962607672 7.420412516349321 16.31199925838185 0 0 0
3376 16 1 13.594110037725727 7.466166870489025 18.83786764292863 0 0 0
3373 16 1 13.457395444289526 8.133082110998384 15.025511919289482 0 0 0
3375 16 1 13.470414972456258 8.21600689712054 17.551401996673764 0 0 0
3599 17 1 9.297599142134295 10.689202085396028 17.449559514905584 0 0 0
3597 17 1 9.203636077733076 10.693874839088842 14.876653330744492 0 0 0
3598 17 1 10.023007743698725 10.432308981129239 16.14657880341758 0 0 0
3600 17 1 10.2260209459056 10.546825213378554 18.60607662600875 0 0 0
3824 18 1 14.039616253077938 12.500846387793386 19.02917483262052 0 0 0
3822 18 1 14.105292578534296 12.687815821464483 16.460899893778596 0 0 0
3823 18 1 13.373892913391579 13.120101429665382 17.78870559738606 0 0 0
3821 18 1 13.310791135316116 13.12825671040648 15.24223449860941 0 0 0
3377 16 1 13.232244016007662 8.103451486805312 20.121201479417874 0 0 0
3825 18 1 13.427281768868243 12.972877513567662 20.28952551670713 0 0 0
3601 17 1 9.443548454901856 10.549525791546795 19.90194134921102 0 0 0
1804 9 1 2.1813192253196783 19.61541090025731 13.544934414337034 0 0 0
1356 7 1 2.019801382474767 15.584659454173979 13.864950677906887 0 0 0
1579 8 1 5.9503436472103965 18.21023742335258 13.655510603457852 0 0 0
1357 7 1 1.4465698384871577 14.96946828731103 15.154864497984278 0 0 0
1358 7 1 2.214699336777629 15.432891748438378 16.421857065724453 0 0 0
1359 7 1 1.603205375565295 14.844139180248357 17.687695918945284 0 0 0
1360 7 1 2.2490813883616085 15.359443257257142 18.996337150695844 0 0 0
1580 8 1 5.260546825314489 17.67315340544225 14.872501256604185 0 0 0
1583 8 1 6.147762518655413 17.490861071251373 18.709930612391453 0 0 0
1582 8 1 5.254408909578995 17.47575847038241 17.471388524709425 0 0 0
1581 8 1 5.9452005445671094 17.93440877549576 16.17314295501795 0 0 0
1807 9 1 1.5074880315505115 19.001148825427734 17.370784734476942 0 0 0
1805 9 1 1.4975812096955208 19.23973856697515 14.882356617627188 0 0 0
1806 9 1 2.082489105832527 19.809393571692894 16.13849636406015 0 0 0
1808 9 1 2.0342737654951364 19.602138996395816 18.675956347654513 0 0 0
1361 7 1 1.6717957907667509 14.70044329565949 20.211910954370715 0 0 0
1584 8 1 5.4448847075968425 17.101286311397182 20.025221713097537 0 0 0
1809 9 1 1.6957045497042793 18.80584240121908 19.944658024169826 0 0 0
4043 19 1 9.517272492194321 14.94013639594755 13.534738871616748 0 0 0
4492 21 1 9.673412648092338 19.438379958978324 13.573696140349492 0 0 0
4268 20 1 13.272423944302261 16.86151769177951 13.906160270904056 0 0 0
4044 19 1 8.86100334730919 15.32075022420895 14.876669600869015 0 0 0
4046 19 1 8.709656529402043 15.175205742804884 17.373824223939174 0 0 0
4270 20 1 13.099518234048377 16.99370496871171 16.39733140967854 0 0 0
4045 19 1 9.270934813689278 14.518251006094617 16.070633323066822 0 0 0
4047 19 1 9.579616553517054 14.626417556530773 18.515858920052953 0 0 0
4269 20 1 13.293024593853655 17.737309918109865 15.127706257152884 0 0 0
4271 20 1 13.724827225535078 17.53121081152132 17.610919983410255 0 0 0
4272 20 1 13.303396471699491 16.988682786724972 19.00422384576793 0 0 0
4494 21 1 9.975164506941669 19.522231780557988 16.13686420025913 0 0 0
4496 21 1 9.767178723800034 19.302807997171854 18.690752312832007 0 0 0
4495 21 1 9.226787517776158 19.887420622781022 17.412281290980292 0 0 0
4493 21 1 9.355708498586479 20.120940855985758 14.896306615195563 0 0 0
4273 20 1 13.896993223969542 17.785384149703503 20.18530502633123 0 0 0
4497 21 1 9.199599425061912 20.000876888157542 19.952227041755716 0 0 0
4048 19 1 9.07635088994274 15.077193760884567 19.86543771994462 0 0 0
2477 12 1 6.136533574320427 -0.03153790834832411 13.243100831493031 0 1 0
2479 12 1 6.317464004334356 26.677013637944803 15.948761279754077 0 0 0
2481 12 1 6.245415395797921 26.435878593562478 18.546159975434005 0 0 0
2478 12 1 5.552089680273439 26.583701521322197 14.614162997021413 0 0 0
2480 12 1 5.610967088238946 26.124391042296097 17.158803719941847 0 0 0
2252 11 1 1.7557127536822874 24.164884579564145 13.228901973772729 0 0 0
2027 10 1 5.594295448803841 22.688853635847245 13.799288666487353 0 0 0
2030 10 1 5.2118921097381286 21.781481269660567 17.62408309443747 0 0 0
2028 10 1 5.235902809324576 21.878808000825543 15.00740757992562 0 0 0
2029 10 1 5.9484816993786795 22.125405365722628 16.303209899701745 0 0 0
2254 11 1 1.668308499744461 24.387958154939938 15.797197900744603 0 0 0
2256 11 1 1.796062797866091 24.53107093696135 18.289013054820163 0 0 0
2253 11 1 1.2837799352161365 23.52805396672167 14.551054829233035 0 0 0
2031 10 1 6.071588600519816 21.924960314814726 18.881284414357864 0 0 0
2255 11 1 1.5087915556832359 23.637121951311315 17.11984626273671 0 0 0
2482 12 1 5.479145936309444 25.778720115532437 19.69971627953458 0 0 0
2032 10 1 5.466116987597714 21.331703743119533 20.104948627299365 0 0 0
2257 11 1 1.4682352138747965 23.837564640677805 19.60884123125086 0 0 0
5164 24 1 13.755291414793382 25.662296285036227 13.584680459253272 0 0 0
5168 24 1 13.65899182581444 25.698016940662548 18.710414848667792 0 0 0
5165 24 1 13.416963326371114 26.502580887078743 14.847488315280955 0 0 0
5169 24 1 14.042416646724531 26.587869765615885 19.911569688255796 0 0 0
5167 24 1 13.580946270954172 26.543716626889875 17.44319083386668 0 0 0
4716 22 1 13.861636787692985 21.419187233189504 13.42673605704705 0 0 0
5166 24 1 13.50332957278188 25.669474625002003 16.1327070146328 0 0 0
4718 22 1 13.977563088261508 21.43739954931035 15.988667823885798 0 0 0
4720 22 1 14.010058547098014 21.58472441124774 18.4828850309028 0 0 0
4717 22 1 13.248877959963377 21.85099989997329 14.723651068808175 0 0 0
4941 23 1 9.203611684919013 24.360204869376417 17.545526830832664 0 0 0
4939 23 1 9.068856357713605 24.33361435221358 15.023448823730117 0 0 0
4940 23 1 9.888752046304063 23.960581655537254 16.263980124586418 0 0 0
4719 22 1 13.219493491047862 21.868601578645972 17.22206462245872 0 0 0
4942 23 1 10.131760587484818 24.21649615426481 18.74726693970296 0 0 0
4721 22 1 13.24297037835211 22.028953869101272 19.749015697195542 0 0 0
4943 23 1 9.407663911735588 24.14412473724463 20.099985435511737 0 0 0
247 2 1 6.616029025915159 3.671864379971153 23.80410598787544 0 0 0
245 2 1 6.223757915842847 3.569399178221268 21.188437565429332 0 0 0
248 2 1 5.913222036404191 4.12499145496289 25.087280415702015 0 0 0
246 2 1 5.69220394757533 3.855250190141904 22.60611073925052 0 0 0
18 1 1 2.480684638644788 1.7300993145097676 21.02672191591271 0 0 0
22 1 1 2.6915296102436157 1.6566418134482104 26.279605595748908 0 0 0