LAMMPS data file via write_data, version 23 Jun 2022, timestep = 11112117

8487 atoms
2 atom types
8471 bonds
3 bond types
8455 angles
3 angle types
8439 dihedrals
3 dihedral types

0 36.89775039 xlo xhi
0 26.67072 ylo yhi
21.294354382022973 215.45725001797436 zlo zhi
0 6.108787465053963 0 xy xz yz

Masses

1 14
2 15

Pair Coeffs # lj/cut/omp

1 0.0914 3.95
2 0.1947 3.75

Bond Coeffs # harmonic/omp

1 449.5 1.53
2 449.5 1.53
3 449.5 1.53

Angle Coeffs # harmonic/omp

1 62.0967 114
2 62.0967 114
3 62.0967 114

Dihedral Coeffs # opls/omp

1 1.411 -0.271 3.145 0
2 1.411 -0.271 3.145 0
3 1.411 -0.271 3.145 0

Atoms # molecular

816 8 1 13.006824680980966 11.20870275074644 38.297834345884354 1 0 1
3861 31 1 15.71320483543919 18.586192200745607 27.316295096873382 0 0 1
993 10 1 3.9385427597181697 14.78776077963438 25.194095862598733 0 0 1
1645 12 1 8.564888417716531 21.255906392663068 24.447820245732316 1 0 1
991 10 1 2.5251768570300728 14.618642007904668 22.99620488679853 1 0 1
283 3 1 17.584390525122245 4.031807386095685 37.140065457995526 0 0 0
994 10 1 5.175596590494357 14.28229528894874 25.90353081958451 0 0 1
904 9 1 7.168354478339775 11.902029600945857 22.968730421971387 0 0 0
2125 17 1 16.503482545032618 2.1070468828006637 30.625456451423645 0 0 0
3824 27 1 17.354040013074382 19.932314835731855 30.570197220597926 0 0 0
3772 25 1 16.588472786822724 17.58120147122372 22.44118108671455 0 0 1
915 9 1 14.977092427627854 13.05524498781038 34.16539693796833 0 0 0
1403 23 1 3.583364723803858 18.16938284263373 24.56683561995951 1 0 1
3270 22 1 17.205342532627984 12.58488263423409 22.26931035211186 -1 0 0
818 8 1 14.500000141067433 11.394453674083291 40.328711487628 0 0 1
731 5 1 7.563691160766967 7.765756077001549 24.072700323173752 1 0 1
317 24 1 10.161368071976677 6.461653320654794 34.3205340888812 0 0 0
3859 31 1 14.229233073529398 18.538182487578 25.111785877065504 0 0 1
738 5 1 12.902644941210946 7.8577024926070145 31.18000992017047 0 0 1
6818 33 1 0.7141014074471657 5.839242765805077 32.0964993452198 1 0 0
1405 23 1 5.227118576206184 18.416922618523277 26.484004926515418 1 0 1
7093 7 1 3.851746316316601 12.343909414273275 30.765672535644242 0 0 0
4148 19 1 15.494184687598946 24.110877747523 28.257979638057893 0 0 1
992 10 1 3.7938251981696975 14.226147642265401 23.745832081613337 0 0 1
309 24 1 4.675115396807516 6.130838669403053 25.92844296712701 0 0 0
2112 20 1 9.067943722447357 25.3676083478917 25.137090519458773 0 0 0
1653 12 1 14.127724688963726 22.01038491815453 32.68028985163414 0 0 1
8462 53 1 4.154133661546648 26.080437594262456 31.573726396750743 0 0 0
2798 15 1 17.278168088288243 7.773577147680749 25.526631898668285 0 0 0
3565 26 1 14.468035682441469 14.55132288986387 26.161626371335764 0 0 0
2593 18 1 12.711378779849923 5.822371504174984 25.67883835348062 0 0 0
1644 12 1 7.843257352259008 20.39191929203083 23.44120281392334 1 0 1
741 5 1 14.426111652961271 8.811382299920952 34.59951128263891 0 0 1
809 8 1 8.111893628139523 9.971546761196466 30.814094159248288 1 0 1
1411 23 1 9.820370034923615 18.917344614217615 32.55284993206964 1 0 1
2126 17 1 17.631631989603637 1.3495104613001074 31.271087699012554 0 0 0
1673 15 1 14.717234039661756 24.271804510018335 39.453612277764066 0 0 0
3345 26 1 17.164065822900245 14.963625762904801 30.6282003191138 0 0 0
4168 30 1 16.41546930477687 25.47186214978898 22.650080833784465 0 0 0
805 8 1 5.475507653007302 9.88219134507704 26.445602386706803 1 0 1
6741 52 1 1.847659351324741 1.2039562474590828 33.862733484718575 1 0 1
1881 50 1 3.12706938267047 23.39729234583166 22.8459747509436 0 0 1
6519 52 1 3.250484083560721 1.2162792210925448 36.106008796563756 1 0 1
273 3 1 10.113292042087751 3.049099108229443 26.76462112057376 0 0 0
3563 26 1 13.041489113057054 14.709750033971048 23.920507422062432 0 0 0
2795 15 1 15.333617915760753 8.557618781389511 22.205191849731793 0 0 0
2119 17 1 12.547513571561234 1.3032027198528666 24.03838614187177 0 0 0
1404 23 1 4.00723439729159 19.05397553810417 25.756225648121138 1 0 1
7982 62 1 5.634063671385308 21.571676848767357 33.89506921383823 0 0 0
3024 14 1 17.528910245628754 11.26057295159936 31.4735472914873 0 0 0
308 24 1 4.117456512168415 5.183821631304806 24.884319494872305 0 0 0
208 1 1 1.99395874747376 1.3104922645953736 22.308373693655025 1 0 1
7094 7 1 4.018838983806637 12.788858933798267 32.19019074939387 0 0 0
7538 6 1 5.437791964559513 16.787441761892783 32.86936480349731 0 0 0
320 24 1 12.946227760619205 6.043952600345542 37.253854693424785 0 0 0
215 1 1 7.53339122513963 0.9756743601410421 29.267196441827615 0 0 1
1413 23 1 11.320413738810428 19.07966601609155 34.61253089705676 1 0 1
6939 38 1 8.530219885209055 8.877229928131882 38.845996200462416 0 0 0
3863 31 1 16.760346469420035 18.97148725438263 29.564707209091516 0 0 1
3857 31 1 12.842898943041593 18.488662966235204 22.949830044297297 0 0 1
214 1 1 6.236959723925434 1.3827356908773074 28.519366282941636 0 0 1
4149 19 1 16.72797032404256 23.698677588761026 29.075542562172608 0 0 1
209 1 1 3.0880403955749713 0.4980950122496402 22.97797641110372 1 0 1
729 5 1 6.042131031346906 7.531716814728714 22.088012794006346 1 0 1
906 9 1 8.651035454635533 11.809003929880971 24.923264835145183 0 0 0
903 9 1 6.817601855837244 12.321028873035443 21.466439130752907 0 0 0
1887 15 1 6.958878779048825 23.888604539804493 29.23053087905515 0 0 0
2561 51 1 17.30714840244175 3.4151054818681845 24.561306254872072 0 0 1
7100 7 1 7.981899777981345 12.84173029310234 38.78857660393079 0 0 0
7776 60 1 2.397729122093595 20.054450506135673 35.95917599268125 0 0 0
2113 20 1 9.677667233606494 26.118555496409613 26.331538004557178 0 0 0
1643 12 1 6.943318991330908 21.31273673411355 22.62331226161252 1 0 1
7781 60 1 6.528903877963614 19.48317682284496 40.59466916439575 0 0 0
7545 6 1 10.108712422234955 17.5952900748388 40.278877338089565 0 0 0
1414 23 1 11.78978796727666 19.97385018839581 35.7627015432311 1 0 1
6790 35 1 3.5546752208388797 3.4979631749895135 30.604977011347373 0 0 0
2597 18 1 15.666477884472023 6.371914389967778 29.925657354407264 0 0 0
1017 11 1 17.660241280260482 17.36045659888682 37.63626195399684 0 0 0
2797 15 1 16.99059666998618 8.411748139713405 24.224447736842503 0 0 0
4996 9 1 18.542247702026902 12.900074695766994 39.53514971160933 0 0 0
2118 17 1 12.057813590161063 0.35768896734569244 22.942540999190467 0 0 0
1002 11 1 7.045529973954285 16.457203713989124 21.896697401467108 0 0 0
1649 12 1 11.038544047106974 21.971418315914374 28.716634485365127 1 0 1
3858 31 1 12.865567151301523 18.926442798441958 24.412089332529014 0 0 1
316 24 1 9.687175974934547 5.5693321131324645 33.202304633731174 0 0 0
322 24 1 14.319900969524232 6.262416131012134 39.44505905679463 0 0 0
6786 35 1 0.6006392868340228 3.085638503147719 26.317334323211796 0 0 0
804 8 1 4.235758788214064 10.392798024891016 25.732329432297366 1 0 1
6989 56 1 0.7715123126146111 10.414616472137999 32.97337242810083 0 0 0
271 3 1 8.553902092605412 2.8666420834676725 24.713624186182788 0 0 0
806 8 1 5.847238134143823 10.71483382812059 27.700634941520278 1 0 1
737 5 1 11.455943086934427 7.843234574080043 30.636514639920943 0 0 1
911 9 1 12.348302111550277 12.538861665587696 29.89478459727613 0 0 0
1003 11 1 7.093830154618368 16.345245880256236 23.38008900285532 0 0 0
6991 56 1 2.201367113543363 10.402437760470646 34.96856846466938 0 0 0
2122 17 1 14.652918254360195 0.9651510571010044 27.35765482767288 0 0 0
7984 62 1 7.286074721677036 21.83144308269966 35.96243767512939 0 0 0
1651 12 1 12.91120422677953 22.13049651439398 30.425472105076032 1 0 1
217 1 1 8.985169594423311 1.0841265862200653 31.37889949214417 0 0 1
8458 53 1 1.1913354952723736 25.826935215555366 27.34838031703414 0 0 0
3269 22 1 15.866097055983039 12.044289833012638 21.72567341087183 -1 0 0
3825 27 1 18.17990968005077 19.145632586452255 31.5281057492637 0 0 0
1657 12 1 16.572915279479286 21.91320533790693 37.20622505829328 0 0 1
1646 12 1 9.309855479379078 20.63873844721397 25.538492307535787 1 0 1
2591 18 1 11.365708807810464 5.249527283688002 23.558704473912183 0 0 0
3561 59 1 11.47483728757156 14.45520859776496 22.068998557174933 0 0 1
2111 20 1 7.9843840995364035 26.040533973627937 24.283127415148698 0 0 0
6995 56 1 4.975351849219584 10.764680426720084 39.39807233065687 0 0 0
6819 33 1 0.6697285597431681 6.159962491491822 33.62167371678178 1 0 0
1654 12 1 14.884108184788886 21.115446035412674 33.73937923402339 0 0 1
2558 51 1 14.678015381972685 3.7053907023481445 21.675855780960745 0 0 1
3860 31 1 14.54585744649037 19.11009467992285 26.47492865508309 0 0 1
1412 23 1 10.405065919637636 19.798867847620556 33.65088956348064 1 0 1
4150 19 1 16.973075770262817 24.47094193614085 30.355578374567393 0 0 1
319 24 1 11.772139040832716 6.6724080471021825 36.46157398041771 0 0 0
6992 56 1 2.3155231297284247 10.224733211291884 36.47460718114214 0 0 0
3020 14 1 14.66017517489177 10.922233204774356 27.185702976794996 0 0 0
2794 15 1 14.102863640766811 8.015258690333756 21.460200323578707 0 0 0
8461 53 1 3.6813782345184283 25.19014177058571 30.405737318345423 0 0 0
6932 38 1 4.1676065193852185 7.932142195144002 31.01513827705167 0 0 0
745 6 1 17.468352620225048 8.922735770305872 38.63334381930357 0 0 0
1897 20 1 15.054230868144185 26.32136006759879 34.78523145622187 0 0 0
1659 12 1 18.067663781021906 21.92986917123481 39.30208222816755 0 0 1
922 45 1 11.239180548842644 14.7638696076596 35.66984712705847 0 0 0
923 45 1 12.517925923338025 15.325419893082422 36.306440082442286 0 0 0
924 45 1 12.659214217714455 15.009984913361267 37.79907466291322 0 0 0
1886 15 1 6.348187556542675 22.850378915285834 28.312795491840987 0 0 0
6522 52 1 4.831986433809677 2.2607709310343576 39.65124677806128 1 0 1
1014 11 1 15.950286621970552 17.609283550254364 34.125713687860966 0 0 0
8217 63 1 3.1054588148142517 23.9292537410838 35.469079423825264 0 0 0
1650 12 1 11.811067444673151 21.26414223796584 29.798016712479622 1 0 1
1415 23 1 12.582763605612499 19.1188384585856 36.75863040105803 1 0 1
8463 53 1 5.0576992075420195 25.40950545551238 32.606445966476784 0 0 0
8460 53 1 2.565561587741928 25.860510051280567 29.584037427670612 0 0 0
313 24 1 7.203380323753144 6.009274451069816 30.285872708786002 0 0 0
1884 50 1 5.090275580533894 22.727987045854903 26.114037654470003 0 0 1
6788 35 1 2.1300037338125 3.3099236729509935 28.499636712106188 0 0 0
7533 6 1 1.337770649512444 17.675164094611187 28.032426420027974 0 0 0
1883 50 1 4.635332065444209 23.49020170369295 24.883640202567516 0 0 1
7532 6 1 0.7450341995262437 16.944918922677285 26.802669259547212 0 0 0
739 5 1 12.927757609845727 8.213901381585531 32.66628084339128 0 0 1
2109 16 1 6.505928743200127 25.95672703177831 22.346127635310502 0 0 1
955 45 1 8.257552526034814 14.550398614049788 31.573498029956923 0 0 0
956 45 1 9.697702543620634 14.650894976729802 32.14639157861099 0 0 0
957 45 1 9.679134278971128 14.521952457848679 33.669169423908244 0 0 0
958 45 1 11.002741282399025 15.076829059703158 34.217356501525884 0 0 0
995 10 1 5.369848850492458 14.701557150561595 27.34787463522341 0 0 1
1409 23 1 8.276713455099943 18.687968687182373 30.56795767706693 1 0 1
8469 53 1 9.892257678748624 25.823418712873583 38.362238843716796 0 0 0
7534 6 1 2.427082407679838 16.87196893283713 28.68295126219798 0 0 0
1012 11 1 14.546351786276132 17.124897332958003 32.06006999050247 0 0 0
811 8 1 9.285573778969077 9.874837149483445 33.16187555187587 1 0 1
3879 29 1 16.946245565709994 21.367181426008152 24.0121284170931 0 0 0
810 8 1 8.392286979397547 10.634941613249305 32.14901155884528 1 0 1
279 3 1 14.367446739577234 3.4823758593898395 33.30643361577877 0 0 0
2560 51 1 16.200853260306328 4.008403077386993 23.731902998419304 0 0 1
4151 19 1 18.117242467277975 23.898224941447115 31.1925866198498 0 0 1
803 8 1 4.054264054144217 9.791059003832652 24.342968782964157 1 0 1
4167 30 1 15.355495615609437 26.106934431134444 21.7136692533555 0 0 0
219 49 1 10.394486005183092 1.1012747552528575 33.65243843325191 0 0 0
281 3 1 15.956946930693165 3.6680217259918395 35.219621734323255 0 0 0
1407 23 1 6.750391445768603 18.47066080132653 28.47411932126288 1 0 1
7090 7 1 1.2066516781485817 12.341295146082517 27.798746024415216 0 0 0
7319 58 1 0.9166178675316983 14.500843036885891 33.974749673296714 0 0 0
1656 12 1 16.425695463347104 21.422610967377135 35.79160967590007 0 0 1
1670 15 1 12.16259467819477 23.80348731850308 36.548255649813306 0 0 0
6821 33 1 2.1547086652647818 6.212604134903806 35.80837686253294 1 0 0
8221 63 1 6.043001166973461 24.51446714506921 39.66601536552265 0 0 0
815 8 1 12.556368712931366 10.470173160871303 37.00678416140821 1 0 1
1015 11 1 16.044358595824807 17.630034184850448 35.661080171199345 0 0 0
224 49 1 13.58135650770768 2.302683904320429 39.15933468529832 0 0 0
2595 18 1 14.20447367237209 6.11735901184111 27.768700346181376 0 0 0
6990 56 1 0.8068243610520758 10.064989158593667 34.402773715511756 0 0 0
4152 19 1 18.411613739984936 24.43823043908116 32.62045320114478 0 0 1
6792 35 1 4.803232424820521 3.386793248712638 32.88604147133932 0 0 0
1410 23 1 9.19938116046165 19.5824479324847 31.448540065205435 1 0 1
1004 11 1 8.542041533529105 16.383098300145388 23.883623268860635 0 0 0
3019 14 1 13.591680382011418 9.966395482178779 26.56625158077312 0 0 0
734 5 1 10.244647909599921 7.89089116449403 26.903094078048728 0 0 1
1406 23 1 5.5774788558034984 19.2210609684443 27.819633184169753 1 0 1
7321 58 1 2.3258753237457004 14.451464019705256 36.02346032436047 0 0 0
6797 35 1 8.69725704828345 4.285401974334124 38.02709249676113 0 0 0
284 3 1 17.775972743350362 4.54282011927286 38.54867428651659 0 0 0
6930 38 1 2.6504843217968577 7.893343542240635 28.925136322933916 1 0 0
212 1 1 4.925443379774272 1.2419253101897643 26.31960338087049 1 0 1
312 24 1 7.157713897247693 5.555952406135638 28.854010503651423 0 0 0
1402 23 1 2.639788738340306 18.941419378978985 23.59214514178756 1 0 1
4169 30 1 16.81039673104479 26.164164520253347 23.883292464457146 0 0 0
268 3 1 5.980847231353103 3.4210190999117236 21.890375196951457 0 0 0
8468 53 1 8.832861401975542 26.565937793404693 37.566644318629244 0 0 0
2559 51 1 15.933106626568554 3.2464105759036945 22.424028961713308 0 0 1
7535 6 1 2.9282414123758502 17.486878675763446 29.906878687286152 0 0 0
210 1 1 3.652783800990354 1.1107811168816513 24.268234403419743 1 0 1
914 9 1 13.765250819235536 12.437388426254905 33.52673200586205 0 0 0
278 3 1 13.131731307514093 3.8599304989768375 32.478723878227704 0 0 0
4146 19 1 13.973850518571448 23.68108766829834 26.279730554601954 0 0 1
3344 26 1 17.125229850660297 14.761903170830008 29.111363341222617 0 0 0
6824 33 1 4.82656438672914 5.6753453358174335 38.423137452855244 1 0 0
814 8 1 11.223532656134598 10.970124984241998 36.489865673885404 1 0 1
3877 29 1 15.34764836535507 21.595680238175888 21.876428832207967 0 0 0
2114 20 1 10.444946559699517 25.264193744354955 27.3322587041256 0 0 0
3862 31 1 16.015525161104044 19.635346007841857 28.379326445415796 0 0 1
8465 53 1 6.4319042807827564 25.64176423767432 34.626576172192216 0 0 0
1418 23 1 14.516319769041711 20.04233944856396 40.0639299920442 1 0 1
4171 30 1 18.354186924029964 26.246168255098347 25.874831688079333 0 0 0
1668 15 1 10.844652471389306 23.658855997423675 34.46317665104742 0 0 0
3562 59 1 12.90880123187946 14.281001484785099 22.449675566508812 0 0 1
926 45 1 14.157147958466773 15.027270678642612 39.91948205894792 0 0 0
7324 58 1 5.255996830583274 15.122737263960255 38.68879021727233 0 0 0
2589 18 1 10.117696639483356 5.401430006703297 21.418616106838275 0 0 0
4170 30 1 17.95334192939827 25.50506090584788 24.64196781281801 0 0 0
8219 63 1 4.625480431106531 24.327852874210265 37.557081915272505 0 0 0
4144 19 1 12.616793362874336 23.6417855042263 24.13052270069358 0 0 1
7542 6 1 8.239544951383749 16.741372442467572 37.064820030908926 0 0 0
3017 14 1 12.232902491279779 9.514539721050747 24.305057836443233 0 0 0
307 24 1 3.191116424361145 5.975649760681443 23.884821339335584 0 0 0
907 9 1 9.961185546530663 12.237599758498463 25.649392434297987 0 0 0
801 8 1 2.6650474114183362 9.544765136595075 22.25342358177108 1 0 1
4147 19 1 15.37173988554171 23.437621716406824 26.854492326418733 0 0 1
7983 62 1 6.985533252582052 21.368287462521412 34.51766179504885 0 0 0
1013 11 1 14.56447155748111 17.2681585696164 33.575721884999 0 0 0
3773 25 1 17.60408975029548 16.7182783261285 23.177014126748272 0 0 1
7987 62 1 9.933976509985447 21.657055169458772 38.746627887226985 0 0 0
952 45 1 6.681862320408332 14.33780249613351 27.93744261190244 0 0 0
1655 12 1 15.186597987869202 21.74697294951433 35.03842920662993 0 0 1
8464 53 1 5.586089556997528 26.411038139754876 33.63335854240293 0 0 0
1647 12 1 9.783285639755466 21.6058569141816 26.636235908752884 1 0 1
1891 15 1 10.344038736298355 24.378180334660758 33.17528953417975 0 0 0
1892 20 1 12.073522248532823 25.26355193431273 29.28001146527295 0 0 0
1893 20 1 12.764880429573363 26.240639600816966 30.242789839451973 0 0 0
1894 20 1 13.420642904593137 25.45627722908511 31.376997142356338 0 0 0
1895 20 1 13.924673441430468 26.314325368653456 32.54877671664733 0 0 0
1896 20 1 14.700164148814435 25.46658345817368 33.55319926959454 0 0 0
6520 52 1 3.307056146057757 2.025816277079663 37.49986761430705 1 0 1
7981 62 1 5.538438057152116 21.109176998022654 32.39730155203683 0 0 0
2596 18 1 15.387010446765476 5.668891444155439 28.631681818309243 0 0 0
6825 33 1 5.037588401406112 6.213940402670522 39.796490975538504 1 0 0
733 5 1 8.870494432710585 7.774769843493306 26.291925576277958 0 0 1
742 6 1 15.825681731104595 8.609867922372063 35.25478633149496 0 0 0
7975 62 1 0.7733568331282262 21.36502874231403 26.260578028448222 1 0 0
305 24 1 2.0231033461316956 5.947030273071243 21.632429684275852 0 0 0
270 3 1 7.558999257623612 3.64104974162413 23.912683452258925 0 0 0
6798 35 1 9.083548280024079 3.580247275108598 39.325087586430925 0 0 0
1899 20 1 16.540061924812516 26.354230355537407 36.91121003820729 0 0 0
8457 53 1 1.1167874669635456 25.374268031494083 25.8482939303687 0 0 0
807 8 1 6.814547793454478 9.991405503296658 28.669225282506115 1 0 1
7978 62 1 2.516584772768268 21.466569812930175 29.713927909496043 0 0 0
6791 35 1 4.451058093573188 4.175109625648843 31.58867138604775 0 0 0
280 3 1 14.828245213150455 4.394405164788733 34.43133643821767 0 0 0
1006 11 1 10.004304273935176 16.68290083004633 25.879373725577707 0 0 0
1642 12 1 6.299076068005097 20.50379563732482 21.47069653915095 1 0 1
223 49 1 13.361828017283495 1.6263835751426834 37.79771633918813 0 0 0
1901 20 1 18.28905335394688 0.01809920391114113 38.76217962874436 0 1 0
8215 63 1 1.4091702956427352 23.736154185538954 33.60507436683862 0 0 0
813 8 1 10.707028594228298 10.092591695225504 35.30083734124157 1 0 1
1417 23 1 14.352822319445936 19.33874570425852 38.76481980106006 1 0 1
1400 23 1 1.2630483743008556 18.773641824583066 21.454084407863796 1 0 1
1671 15 1 13.36220487271192 24.405060663594472 37.34674754265575 0 0 0
912 9 1 12.611680075024319 12.164302308297847 31.348586479029635 0 0 0
2121 17 1 13.861269980534198 1.5722539340390347 26.223169377953642 0 0 0
7095 7 1 5.389683064508492 12.578249607757707 32.868389935297856 0 0 0
730 5 1 7.514045138328604 7.743572459752509 22.550914597097563 1 0 1
7099 7 1 7.970336642411456 12.960158274555411 37.21862485581018 0 0 0
7774 60 1 0.7239187898063528 19.752905638661314 34.055006115507545 0 0 0
7091 7 1 2.486876094677139 12.052038359091215 28.574184003625273 0 0 0
7779 60 1 5.263059965590787 19.358580575776603 38.471534000327054 0 0 0
311 24 1 5.993792780911783 6.167169020781867 28.11258020429976 0 0 0
953 45 1 6.912657040412483 14.697560084894553 29.371935119869686 0 0 0
740 5 1 14.292945825882747 8.08881282022916 33.28728295884565 0 0 1
1652 12 1 13.778968929108057 21.274315206619047 31.369203373175047 1 0 1
7775 60 1 1.8782254151863134 19.15872758961478 34.79526642912953 0 0 0
306 24 1 2.783802602249111 5.100901477675226 22.685319205508485 0 0 0
1007 11 1 10.235883777322055 16.727442385694584 27.403484975722762 0 0 0
6799 35 1 10.348992156732661 4.218326581914654 39.96738212298339 0 0 0
211 1 1 4.677347329900153 0.31940461612978843 25.146399491294012 1 0 1
746 6 1 18.85465889511263 8.6973914610493 39.21697744320032 0 0 0
315 24 1 8.656877892520503 6.211179716075096 32.290890153188045 0 0 0
6931 38 1 3.028997253734792 8.56588890164941 30.247681245740928 0 0 0
2590 18 1 11.344085809512094 4.832419714745815 22.08706226760505 0 0 0
7540 6 1 6.8552378774654255 16.816726856631778 34.87073167971926 0 0 0
3025 14 1 18.02699674041473 10.512586979382755 32.70650454116027 0 0 0
2115 20 1 11.171086963580548 26.027159811435485 28.40539860465019 0 0 0
7980 62 1 4.265622396063211 21.5231187786335 31.69226627331136 0 0 0
7089 7 1 1.2212791849979574 12.282475373656839 26.33847277112455 0 0 0
1018 11 1 18.950219697773722 17.650404292997436 38.245262736759045 0 0 0
6795 35 1 7.3552834936547615 4.277688303286308 35.77239022790644 0 0 0
6934 38 1 5.469901089354627 7.961639208692539 33.23906787901807 0 0 0
925 45 1 13.911736206883482 15.499540325616712 38.43631384676318 0 0 0
218 49 1 9.23739085845501 1.7244589328704354 32.77556836320815 0 0 0
1 49 1 14.723684798328604 1.674347675243852 40.00454861538752 0 0 0
954 45 1 8.271632428438382 14.488321586440085 30.014616987720846 0 0 0
3486 22 1 18.586493840158187 12.23114183024309 25.83890618446918 -1 0 0
7976 62 1 0.8184395487167948 21.468542833586053 27.737800678204774 1 0 0
221 49 1 11.863013522815013 1.303194094360094 35.731074755273504 0 0 0
6929 38 1 1.457005487089234 8.651822624127627 28.269253789214776 1 0 0
7322 58 1 3.61140150239092 15.070451942150564 36.635453683478616 0 0 0
6787 35 1 1.452088515177235 3.943654077480761 27.24296679513584 0 0 0
916 9 1 15.688422039465515 12.64120647952017 35.47299717286556 0 0 0
812 8 1 9.739478984938128 10.772108136118367 34.33699880856791 1 0 1
736 5 1 11.405860026269595 7.947484401665664 29.071608817376266 0 0 1
6796 35 1 7.745396400716491 3.570939439771537 37.14366048336926 0 0 0
3021 14 1 15.1751539830544 10.243351185209779 28.448419923272894 0 0 0
1005 11 1 8.588269347451924 16.750444193733408 25.358206723790666 0 0 0
318 24 1 11.321516671779579 5.865729037403734 35.21274957450377 0 0 0
8459 53 1 2.3853299108192916 25.304339445236405 28.1881206283958 0 0 0
220 49 1 10.711131567352908 1.8617797571899641 34.9191542003513 0 0 0
6523 53 1 5.94243772225645 1.6917717533179202 40.54744247007899 1 0 0
7979 62 1 3.9140209662233603 21.128389984458682 30.189189809585365 0 0 0
2594 18 1 13.98583081214875 5.404889822699277 26.433170507355214 0 0 0
1401 23 1 2.428885137470702 18.181033766338373 22.27669329563796 1 0 1
2562 51 1 17.555721881695185 4.028709708328862 25.936551047940952 0 0 1
905 9 1 8.477071211080348 12.41508029877716 23.565946103204418 0 0 0
7780 60 1 5.517979913320876 20.16356671514676 39.703708409094006 0 0 0
8467 53 1 8.02571151749444 25.645254871361207 36.704515860835215 0 0 0
8216 63 1 1.6286564971654405 23.784492209051958 35.05505930194948 0 0 0
1557 18 1 17.230045884776395 6.5424800637000065 31.977491894269072 0 0 0
1408 23 1 7.4767049904704015 19.388135565717853 29.480169712236552 1 0 1
1885 15 1 5.812373479527734 23.589140089482317 27.0952594515446 0 0 0
3856 31 1 11.537988794035638 18.881394742655385 22.39669641776223 0 0 1
1009 11 1 11.746165134310711 16.745297600611405 29.404123852106295 0 0 0
282 3 1 16.218497226078938 4.275923693682381 36.59125097402683 0 0 0
5749 44 1 0.8477869762455589 17.141639428788324 39.566573384087 1 0 1
6938 38 1 8.080613884683054 8.148097343515243 37.61611184829644 0 0 0
7986 62 1 8.664722521732472 21.98590947036562 38.0285579382212 0 0 0
3018 14 1 12.943865821428595 10.482961539224092 25.270664784890393 0 0 0
6793 35 1 5.765501892508447 4.146868371173756 33.75194809768631 0 0 0
6933 38 1 4.504397429497461 8.71333026343135 32.326192584337534 0 0 0
1890 15 1 9.469713661869646 23.494124680973684 32.232000167287524 0 0 0
2110 16 1 7.4753054662595515 25.199849951468334 23.144259206872363 0 0 1
6521 52 1 4.363122174449151 1.3224569857647381 38.48478526191906 1 0 1
7097 7 1 6.625302461836754 12.989961306513871 35.0727531503429 0 0 0
7098 7 1 6.676339330856158 12.589056056994432 36.509872508614244 0 0 0
732 5 1 8.886434537879587 7.738581844861223 24.76744625644273 0 0 1
2283 9 1 17.01979111538124 13.377331921953266 37.42057127374291 0 0 0
274 3 1 10.377762973809542 3.7803031879367754 28.09842893295783 0 0 0
7101 7 1 9.402206971366034 13.03563841344862 39.22672228402305 0 0 0
808 8 1 7.342714501558756 10.822931432067223 29.848610512001827 1 0 1
6823 33 1 3.685484905222758 6.318108954933187 37.69739974216675 1 0 0
1658 12 1 17.809929935063685 21.332225355036538 37.978935511001325 0 0 1
2124 17 1 16.06605679032763 1.290194403212172 29.37110357316005 0 0 0
7092 7 1 2.4856503629136775 12.59497595381243 30.06594347497051 0 0 0
7323 58 1 3.897635305116444 14.750219826494087 38.0543335870114 0 0 0
3343 26 1 15.735355884302265 14.845086277733007 28.502862529099957 0 0 0
744 6 1 17.472486239163754 8.719230864974213 37.16224303987305 0 0 0
3271 22 1 17.338801306473158 12.18926778518306 23.715919691430788 -1 0 0
8218 63 1 3.4198109445854836 23.669925230146273 36.87651689209815 0 0 0
7778 60 1 4.152597982519488 20.133135479739884 37.78193816440749 0 0 0
7539 6 1 5.7667825290218 17.575265288539786 34.10094091652543 0 0 0
272 3 1 9.033242347404506 3.689116680421522 25.90756227948126 0 0 0
802 8 1 2.9896871142361836 10.429137031282112 23.492102841257076 1 0 1
817 8 1 14.0966323497991 10.554389990029568 39.15151946404549 0 0 1
6789 35 1 3.186872394874998 4.201630909451816 29.284415819901632 0 0 0
3342 26 1 15.82019059027226 14.627520437830862 26.944497868570444 0 0 0
1648 12 1 10.729895754550222 20.957289310222137 27.680024018948295 1 0 1
1010 11 1 13.201410550544328 16.948008246765614 29.882096752742427 0 0 0
7096 7 1 5.275391311417649 12.85171103391387 34.35485264346638 0 0 0
7537 6 1 4.311340960570201 17.447284903411745 32.070275659213564 0 0 0
1174 18 1 16.98022666255232 5.945261634356864 30.575729016501974 0 0 0
1016 11 1 17.432408567075797 17.747763381603864 36.21281902247931 0 0 0
8220 63 1 4.748437491498457 24.074953905353993 39.06094969865103 0 0 0
6826 33 1 6.333034231111381 5.930014916274972 40.483998077812515 0 0 0
913 9 1 13.673431859656745 13.03817914392153 32.07808174787233 0 0 0
1898 20 1 16.271616943140543 25.76426985666634 35.541365804273504 0 0 0
2198 9 1 16.977356090894563 13.407472492748873 35.90892632476338 0 0 0
1011 11 1 13.17430678603425 16.93402224106288 31.39496019786499 0 0 0
6993 56 1 3.663773147928963 10.598564070965658 37.077304491826766 0 0 0
3564 26 1 14.417089891428803 14.29501791372698 24.567967530731185 0 0 0
7985 62 1 8.569682833202869 21.42615457741793 36.55919836763142 0 0 0
7988 62 1 9.996745516512473 22.223261350872505 40.106076426592594 0 0 0
3016 14 1 11.83253628766779 10.31174558470639 23.05190187656134 0 0 0
1889 15 1 8.575133203385146 24.25742987527416 31.208613608137757 0 0 0
6822 33 1 3.427310577561153 5.704049236593178 36.347603669554445 1 0 0
213 1 1 6.193308839565126 0.8346989805912762 27.14687441687977 1 0 1
3774 25 1 18.032407783144677 17.412919873421192 24.540094786486222 0 0 1
3023 14 1 16.62577075305168 10.402469397852576 30.569941816999773 0 0 0
6794 35 1 6.18840232087724 3.6025053280077715 35.08407477614296 0 0 0
7544 6 1 9.84426381462492 16.81693356010439 39.005834799925225 0 0 0
1888 15 1 7.89299073768826 23.27570263826652 30.277943388221086 0 0 0
6940 38 1 9.640217361738411 8.21024702906857 39.61354937750677 0 0 0
8466 53 1 7.059704081713864 26.473528945037476 35.74460625382797 0 0 0
743 6 1 16.204552508024953 9.26465262381175 36.60530254070568 0 0 0
5748 44 1 0.7410919273232178 17.1254731726577 38.10444440452546 1 0 1
910 9 1 11.24441411820656 11.852445539935083 29.231898896867847 0 0 0
6820 33 1 1.9697836703235585 5.753532197722794 34.31515668619751 1 0 0
735 5 1 10.081774670702876 7.836575813477128 28.39428038938939 0 0 1
277 3 1 12.92346865674626 3.1809016531884726 31.131399716414037 0 0 0
276 3 1 11.76756907408587 3.8297429594618353 30.338898933766764 0 0 0
1882 50 1 3.78422762347983 22.594421022972398 23.919342446604006 0 0 1
7536 6 1 3.915574261336972 16.754178860931656 30.791436181537115 0 0 0
6994 56 1 3.6644853962450474 10.285256203331755 38.59121173832171 0 0 0
909 9 1 10.941183472362445 12.501113696506884 27.952127141217353 0 0 0
2123 17 1 15.117735704702856 1.9075313696073606 28.396855550106995 0 0 0
7977 62 1 2.211359446146863 21.02001427785542 28.32344261751252 0 0 0
7541 6 1 7.257579425478111 17.52434160261964 36.18102490840438 0 0 0
6928 38 1 1.310790306226339 8.260651075962615 26.788746275888354 1 0 0
216 1 1 7.781087865459516 1.6076094156789271 30.631781072495663 0 0 1
7325 58 1 5.267741735008748 15.277273205928113 40.19302948265215 0 0 0
2120 17 1 13.363766459984042 0.5813825433402097 25.138738916741524 0 0 0
1416 23 1 13.245945511533046 19.961095460435256 37.84473804984225 1 0 1
310 24 1 5.731383066809668 5.448376648537084 26.810070086784528 0 0 0
1669 15 1 11.785155230893308 24.477935473359516 35.25234620976379 0 0 0
1672 15 1 13.625521939034748 23.580013407474006 38.63988047087935 0 0 0
275 3 1 11.638992077815653 3.370554578120452 28.869362773294334 0 0 0
7777 60 1 3.5263783224445895 19.315899648594662 36.64096541522283 0 0 0
314 24 1 8.221054107417594 5.292692388448046 31.15924651512616 0 0 0
1008 11 1 11.623032424024782 16.402839013216667 27.894685054193907 0 0 0
4143 19 1 12.201567437413967 22.788342479917965 22.920186694145215 1 0 1
908 9 1 9.927857834455567 11.747632610652692 27.106881052443693 0 0 0
4145 19 1 13.789269853147267 23.036621217298762 24.898687742738165 0 0 1
6935 38 1 5.636885066332412 8.673272497129144 34.61066636068941 0 0 0
6936 38 1 6.631228699000546 7.953820047662294 35.55243304386736 0 0 0
6937 38 1 6.8086863566108935 8.626998084324246 36.906920737999776 0 0 0
7543 6 1 8.956532259550817 17.612610063234378 38.09490252574283 0 0 0
2592 18 1 12.703702989580673 5.303949395337406 24.234288234938607 0 0 0