LAMMPS data file via write_data, version 29 Oct 2020, timestep = 34000000

10752 atoms
2 atom types
10752 bonds
3 bond types
10752 angles
3 angle types
10752 dihedrals
3 dihedral types

-0.13352693729087584 31.00144693727827 xlo xhi
-0.11537089498557584 26.786090894955507 ylo yhi
-1.2241847780196338 284.22354477732733 zlo zhi

Masses

1 14
2 15

Pair Coeffs # lj/cut/omp

1 0.0914 3.95
2 0.1947 3.75

Bond Coeffs # harmonic/omp

1 449.5 1.53
2 449.5 1.53
3 449.5 1.53

Angle Coeffs # harmonic/omp

1 62.0967 114
2 62.0967 114
3 62.0967 114

Dihedral Coeffs # opls/omp

1 1.411 -0.271 3.145 0
2 1.411 -0.271 3.145 0
3 1.411 -0.271 3.145 0

Atoms # molecular

230 2 1 5.638469706913756 3.9407791038104083 2.43589436914114 0 0 0
231 2 1 6.39680120423893 4.270230105155817 3.720331577177511 0 0 0
229 2 1 6.406645256514978 4.318695700019937 1.1953397287186416 0 0 0
232 2 1 5.4941116066925275 4.162758007278322 4.922098371787429 0 0 0
4 1 1 2.583702464156094 1.0934995853081215 3.355678517149408 0 0 0
228 2 1 5.748395208870567 3.9159223223570567 -0.14418729290140653 0 0 0
454 3 1 1.8711355954336257 5.259446607058058 4.6579720279484516 0 0 0
2 1 1 2.448854639130439 1.3371918372300768 0.883078447792017 0 0 0
1 1 1 1.6507242360406085 1.042626949798603 -0.40845727642499696 0 0 0
450 3 1 1.6701200662834839 5.761103212838337 -0.4736940035697097 0 0 0
452 3 1 1.7231891619331188 5.410647335290804 2.0632189013776157 0 0 0
3 1 1 1.6262358764429201 1.0614293543552595 2.1419394579263695 0 0 0
5 1 1 1.9138498688038377 1.3863934273462417 4.713435473135252 0 0 0
451 3 1 2.3635886193468507 6.111579583900133 0.8370680417433758 0 0 0
453 3 1 2.140130363483461 6.035142216785707 3.3853938059008613 0 0 0
2469 12 1 6.083622628713201 0.0011400269615206293 3.457742776447291 0 1 0
2467 12 1 6.217334387127181 26.724298475242446 0.8755080256534007 0 0 0
5172 24 1 13.898115462718524 26.16869732656805 23.574611965306076 0 0 0
2693 13 1 9.483075030261372 2.15369867785458 4.438077823924345 0 0 0
2691 13 1 9.498189921148699 1.8296737061793953 1.905089739551602 0 0 0
2915 14 1 13.597923368439373 4.128552327214151 2.3137814610689897 0 0 0
2917 14 1 13.808073352942438 4.1704173869806835 4.926138114181585 0 0 0
2914 14 1 14.215240758111287 3.6215887996352567 1.0253180489354885 0 0 0
2916 14 1 14.128975251381863 3.4610093857794895 3.584846166406307 0 0 0
2689 13 1 9.412495332658922 1.6507346018517897 -0.6163054005421404 0 0 0
2913 14 1 13.572537213835558 4.196104243677833 -0.19807624263485746 0 0 0
2690 13 1 10.28676549664096 1.7235265337759298 0.6131858969678812 0 0 0
2692 13 1 10.259115659075661 1.8973057442267773 3.206891920231083 0 0 0
3137 15 1 9.768279426456962 6.231790429974327 0.8272589969220796 0 0 0
3139 15 1 9.80584942643375 6.479593619778587 3.3209904949606317 0 0 0
3140 15 1 9.414978122493315 7.115404942725734 4.6851788307074305 0 0 0
3138 15 1 9.173393757482055 7.025754653200486 1.9803686548402366 0 0 0
3360 15 1 9.17058712239207 6.547003420365795 -0.5158722573121388 0 0 1
2694 13 1 10.262256764984496 2.0118199595592543 5.765054679903833 0 0 0
678 4 1 5.336396595173577 8.18391093341596 4.894809424496202 0 0 0
674 4 1 5.590262770638109 7.864408053839257 -0.07565270772026689 0 0 0
676 4 1 5.590624240940745 7.906605293521245 2.468911499092584 0 0 0
677 4 1 6.1962708920407 8.592010134864202 3.709206276815099 0 0 0
675 4 1 6.2169670341494285 8.449815891388775 1.1514237652945676 0 0 0
900 5 1 2.3994240670717293 10.590859939100033 0.8932835573903373 0 0 0
902 5 1 2.093655769887021 10.655299067385572 3.458139534138091 0 0 0
901 5 1 1.9683973568721824 9.896163078605296 2.1898614191889765 0 0 0
903 5 1 1.6226200254367797 9.921273766354304 4.6927822985729835 0 0 0
899 5 1 1.9737850691854932 9.861212562147958 -0.33434314918957064 0 0 0
1124 6 1 5.584793930142826 12.515268740720147 2.0473690408222986 0 0 0
1122 6 1 5.528182563403186 12.641055223023473 -0.49064297304588933 0 0 0
1126 6 1 5.396986765506462 12.671495007661667 4.588460962776821 0 0 0
3362 16 1 14.109879847072134 7.903210820826857 0.7266952999585359 0 0 0
3364 16 1 13.9836306109852 8.026077046015569 3.3441251901008338 0 0 0
3363 16 1 14.086301240552128 8.72930101439782 2.008571195428577 0 0 0
3589 17 1 9.857405267041885 11.009784707221177 4.660302556776639 0 0 0
3365 16 1 14.059496870117943 8.91850813950361 4.583744004275509 0 0 0
3587 17 1 9.56607856852528 11.008721048562153 2.2302976973217143 0 0 0
3588 17 1 10.512891376171696 10.649169182752106 3.340502074351308 0 0 0
3586 17 1 10.231867709846451 10.868291561611265 0.8517669861336481 0 0 0
3585 17 1 9.271184246712188 10.912752648888953 -0.35756672885601426 0 0 0
3812 18 1 14.365407426289059 12.561523155105693 3.462343269427052 0 0 0
3361 16 1 13.784529043063664 8.667061590980202 -0.608268188183792 0 0 0
3810 18 1 14.480918746413698 12.73060897488792 0.8902689871104617 0 0 0
3811 18 1 13.709851796648053 12.998152518724723 2.168325985150742 0 0 0
3809 18 1 13.699948277116336 13.1400809101159 -0.3622401855518238 0 0 0
3813 18 1 13.723095818008884 12.977551883745157 4.715614489788219 0 0 0
3590 17 1 10.651345959435663 10.768396429341626 5.965036991863359 0 0 0
3814 18 1 14.324003980583061 12.357900752465603 6.025565034342928 0 0 0
1123 6 1 6.269658699668017 13.040693730838752 0.8374847792948739 0 0 0
1125 6 1 6.3085435964225045 12.751823030537313 3.361445584535433 0 0 0
1127 6 1 6.114376464384475 13.039830172584866 5.891389293660151 0 0 0
1349 7 1 1.8540074653271146 14.51564253732662 4.616528324530949 0 0 0
1347 7 1 1.8611491345877673 14.598275653575934 2.030236920682678 0 0 0
1345 7 1 1.8720421082523626 14.580338065104527 -0.5917369540294284 0 0 0
1792 8 1 5.770691289750607 17.010598488867977 -0.4254551688144955 0 0 1
1348 7 1 2.3712321258054865 15.164249541575675 3.342706923139449 0 0 0
1346 7 1 2.4839244246029435 15.138782638601453 0.7159663785701917 0 0 0
1570 8 1 5.931539468105593 16.86354630366983 2.251962531593113 0 0 0
1572 8 1 6.146983750800863 16.66312988379157 4.808915492561224 0 0 0
1571 8 1 6.489508516902243 17.51398864731211 3.548886298113989 0 0 0
1569 8 1 5.942438548098096 17.71893714828454 0.9370275135270618 0 0 0
1793 9 1 2.1332984274620275 18.572317016777447 -0.17400024126710312 0 0 0
1795 9 1 2.423934639665815 18.697235422843356 2.3561599353830736 0 0 0
1797 9 1 2.3103097899195375 18.9349254824538 4.902453823605201 0 0 0
1794 9 1 2.655240332595369 19.377304030890635 0.9909209225051812 0 0 0
1796 9 1 2.932166474064874 19.47601169790083 3.6087414662925807 0 0 0
1573 8 1 6.172144852745374 17.48586141622532 6.049421514818589 0 0 0
4034 19 1 9.965560914840271 14.646814511801098 0.7063225870322649 0 0 0
4036 19 1 10.06718956765645 14.71671445924491 3.1967668399227573 0 0 0
4035 19 1 9.637955216948155 15.496710147774003 1.9522790124941594 0 0 0
4037 19 1 10.09540596853917 15.518395628202159 4.464022308845873 0 0 0
4258 20 1 13.571858772360752 16.863401453145507 0.5807956529382576 0 0 0
4259 20 1 13.09730921186448 17.462327136611272 1.8576359506071838 0 0 0
4261 20 1 13.380233278487529 17.664528986307246 4.430577693563531 0 0 0
4260 20 1 13.775932297195393 17.005825772883263 3.1217702339829865 0 0 0
4033 19 1 10.116749683328736 15.45688519247568 -0.5357776359439039 0 0 0
4482 21 1 9.577653473843409 19.088516941389976 0.9737784135464196 0 0 0
4484 21 1 9.990209341282915 19.134913668738214 3.498129332797008 0 0 0
4257 20 1 13.025237718798392 17.367228025921513 -0.7604719043385648 0 0 0
4485 21 1 9.699743976617976 19.853396389349207 4.8316772339527425 0 0 0
4481 21 1 9.499817913076214 19.97835342064745 -0.2719966103891337 0 0 0
4483 21 1 9.795908388801694 19.951966946205594 2.2010876837353566 0 0 0
4486 21 1 10.047925407802145 19.118056460149127 6.100830990505959 0 0 0
2020 10 1 5.77374425845344 21.24940443866827 4.794481119419262 0 0 0
2466 12 1 5.806827162466694 25.85083621651205 -0.33683884608056813 0 0 0
2470 12 1 6.0447417031173565 26.06336490595369 4.813042932485981 0 0 0
2468 12 1 6.152098233021426 25.99010984414887 2.1935446810370594 0 0 0
2018 10 1 5.869148842536435 21.324394263158794 2.1264944890544584 0 0 0
2245 11 1 1.8390412139952967 23.984169171883146 4.9733868774151615 0 0 0
2019 10 1 6.316700921055331 21.90293048462663 3.46247423808724 0 0 0
2244 11 1 2.7935799609187706 24.039470184712293 3.741325699391566 0 0 0
2242 11 1 2.6662284766203443 23.807308517635384 1.1031060624875946 0 0 0
2017 10 1 6.214549632316572 22.12268757634233 0.8716613861665681 0 0 0
2243 11 1 2.02345029525715 23.583634194778156 2.4808117708272626 0 0 0
2240 10 1 5.85579284327438 21.543217582203063 -0.5286390183044919 0 0 1
2241 11 1 1.8321369340429894 23.525065989611953 -0.1254285115427387 0 0 0
2021 10 1 6.301407592972092 21.867651610603758 6.167096520299175 0 0 0
5153 24 1 13.39195763384306 26.260941592527708 -0.4541581865645148 0 0 0
5155 24 1 13.629265131037181 26.720692321832416 2.0382638143164855 0 0 0
5157 24 1 13.608031759530855 26.38533972540217 4.531639386018433 0 0 0
4705 22 1 13.665358480560819 22.379551697317105 -0.2992518089676298 0 0 0
5154 24 1 14.355192920841237 26.635246249126887 0.661397262896406 0 0 0
5156 24 1 14.474219809138056 26.262184465758132 3.256468697719634 0 0 0
4708 22 1 13.402233993557605 21.559340420903112 3.565312908272954 0 0 0
4706 22 1 13.48516767473536 21.615240410809484 1.0040053354666099 0 0 0
4929 23 1 9.666902405149953 24.7936993998159 2.270958727797707 0 0 0
4931 23 1 9.697279300475252 24.64659284598747 4.8496027687630505 0 0 0
4930 23 1 10.096057001042428 24.010513760309586 3.4934041889331553 0 0 0
5152 23 1 10.35506153835884 24.23962890701864 1.035267705527195 0 0 1
4709 22 1 13.823219565101072 22.336914349212158 4.775988265472869 0 0 0
4707 22 1 13.50546996251655 22.36830875742215 2.281940712405342 0 0 0
5151 23 1 9.585956092091354 24.598625071909275 -0.20564071301472664 0 0 1
4932 23 1 10.244325787843074 23.821493697483795 6.023133965812799 0 0 0
5158 24 1 14.370173005570482 25.96723276501946 5.79552370014122 0 0 0
4710 22 1 13.768048041392728 21.555709508488924 6.098246143152286 0 0 0
233 2 1 6.346787549000047 4.0281477368335095 6.149452611900708 0 0 0
6 1 1 2.759530035169195 1.617103744493131 5.991474251285065 0 0 0
455 3 1 2.2799976202111463 6.048098875252417 5.912894596890118 0 0 0
236 2 1 5.543863010046359 3.959254302205119 9.9761598512481 0 0 0
234 2 1 5.54739634635021 4.155713153097006 7.447758285521543 0 0 0
235 2 1 6.366193760008607 4.211866490815647 8.712771754273165 0 0 0
237 2 1 6.422604254992851 3.9923557683387703 11.190070160746638 0 0 0
238 2 1 5.589743052949089 4.039132701842469 12.490301885990624 0 0 0
458 3 1 1.712952789478634 5.582712444651422 9.691021103847019 0 0 0
10 1 1 2.619324187438452 1.51453930947491 11.10900282782609 0 0 0
8 1 1 2.6545856623307054 1.4296996830797875 8.601592931034347 0 0 0
456 3 1 1.8541965539717067 5.462964834640886 7.271953861667297 0 0 0
460 3 1 1.410185272452416 5.76870193473816 12.281451021082923 0 0 0
11 1 1 1.8617137534400658 1.4592379399913007 12.416469846357339 0 0 0
9 1 1 1.795485631809227 1.4422317042279589 9.897873111507511 0 0 0
7 1 1 1.885085430386312 1.415610525299502 7.293284273915486 0 0 0
459 3 1 1.7891882137901 6.427867514769137 10.941995881601134 0 0 0
457 3 1 1.8747790732248655 6.410420402035506 8.431628260870822 0 0 0
2471 12 1 5.936253840827524 0.10719800378761501 6.0301648366166445 0 1 0
3141 15 1 10.196711910120346 6.649422210438338 5.907959755336679 0 0 0
2918 14 1 14.174498961624 3.42706236315418 6.239615506729865 0 0 0
2921 14 1 13.438927770766451 4.075095210434455 10.04517088994624 0 0 0
2919 14 1 13.495179595052807 4.0369708236941895 7.503185429408733 0 0 0
2923 14 1 13.506388516298598 3.9315440517152416 12.640608210477673 0 0 0
2697 13 1 9.432929256639419 2.1347448698139564 9.470388544228594 0 0 0
2922 14 1 14.112224945237537 3.44445640663017 11.283104251390938 0 0 0
2920 14 1 14.130576265689145 3.5804582899658937 8.77396061570131 0 0 0
2695 13 1 9.446023261740457 2.388482176875973 6.983675778276732 0 0 0
2696 13 1 10.102958324402232 1.686727259648151 8.184173071403313 0 0 0
2699 13 1 9.49113185118296 2.213410323321868 12.020449364121124 0 0 0
2698 13 1 10.157046418544473 1.6298659753859497 10.71595817425544 0 0 0
3145 15 1 10.18653739673073 6.111240688314537 11.019097903275487 0 0 0
3143 15 1 10.271849711130644 6.379667817808404 8.400755411675409 0 0 0
3146 15 1 9.259324519311717 6.3400064733463095 12.186894396565012 0 0 0
3142 15 1 9.48212504451913 6.94874911740404 7.252705468538936 0 0 0
3144 15 1 9.44080909075599 6.528701678120722 9.709279905095675 0 0 0
904 5 1 1.9985905931789936 10.72140369465973 5.979620000197229 0 0 0
679 4 1 5.845876504428456 8.680437754323005 6.234205949687356 0 0 0
682 4 1 5.18673213537052 8.372206804346355 9.980823862146135 0 0 0
684 4 1 5.333560636228339 7.858569733373726 12.514850181194005 0 0 0
680 4 1 5.154398719714033 8.297222237179684 7.543544378351184 0 0 0
683 4 1 5.885939356502105 8.62924893469116 11.316987846388844 0 0 0
681 4 1 5.931879541654137 8.67620756080256 8.74052803184572 0 0 0
906 5 1 1.6637598814465167 11.00164236947908 8.471719802323971 0 0 0
908 5 1 1.8008904906863161 10.985315949173014 11.073884666431438 0 0 0
907 5 1 1.296045229085579 10.328978668044535 9.80662152100172 0 0 0
905 5 1 1.201609873917629 10.297362074367454 7.229873024003567 0 0 0
909 5 1 1.7163666054122497 10.206777433454395 12.38344655832806 0 0 0
1132 6 1 5.591135914176775 12.456133336844344 12.265890802890606 0 0 0
1129 6 1 6.011955432516814 13.279109891230261 8.482503363051036 0 0 0
1128 6 1 5.270590099723527 12.998604183988274 7.163091227817297 0 0 0
1130 6 1 5.321147412360503 12.881837252561322 9.74581616923994 0 0 0
1131 6 1 6.217089773063317 13.056243676152489 10.985875944859547 0 0 0
3366 16 1 14.073890767675774 8.151175075013128 5.915413304749878 0 0 0
3370 16 1 13.68911754181717 7.814064895825111 10.987466239639966 0 0 0
3368 16 1 13.866609422312587 8.017777775752206 8.384333986915822 0 0 0
3369 16 1 13.671916299045927 8.676353729364402 9.756236443501892 0 0 0
3367 16 1 13.838635741923147 8.940229436964076 7.168282466970117 0 0 0
3371 16 1 13.803457658916386 8.621017778981878 12.29209694682354 0 0 0
3593 17 1 9.673579497806152 10.759650237986591 9.953674883612393 0 0 0
3591 17 1 9.804153804320377 11.043955143907864 7.267585800236203 0 0 0
3592 17 1 10.519472810809246 10.694192640924184 8.607514107737137 0 0 0
3594 17 1 10.481170508407969 10.40079771156234 11.20687176953565 0 0 0
3595 17 1 9.695661972644745 10.667290433843545 12.440503121491476 0 0 0
3816 18 1 14.038892062991245 12.272939363551776 8.565799060410301 0 0 0
3818 18 1 13.720072825238983 12.122379373624717 11.030583903763551 0 0 0
3815 18 1 13.576523089657988 12.819494576986436 7.266323234528162 0 0 0
3817 18 1 13.27011567387089 12.830762211693399 9.7619195868803 0 0 0
3819 18 1 13.58811940763651 12.989206684254924 12.233743184919255 0 0 0
1350 7 1 2.328339123361394 15.315411412324737 5.869133766066181 0 0 0
1798 9 1 2.5687415086886833 19.789026887433224 6.163928203241226 0 0 0
1353 7 1 1.3876276402724688 15.039416482311584 9.661527655965427 0 0 0
1351 7 1 1.483451587801896 14.949879211265763 7.10721730883415 0 0 0
1355 7 1 1.3908548170865702 15.086528860304423 12.319175067833514 0 0 0
1354 7 1 2.005036126685567 15.484919978565985 11.010701806406985 0 0 0
1352 7 1 2.1482311744891294 15.305525287609953 8.418360809017653 0 0 0
1574 8 1 5.69378428918492 16.807850972617125 7.39828849109602 0 0 0
1576 8 1 5.422337292938055 17.15248429456085 9.960088689039926 0 0 0
1575 8 1 5.923794576936431 17.692078080209683 8.617595874175798 0 0 0
1577 8 1 5.8605541335486215 17.91095727984107 11.207040154752 0 0 0
1578 8 1 5.26615266941716 17.3189461186781 12.490788591751553 0 0 0
1799 9 1 1.8320657054474179 19.06790884858664 7.2949404972992316 0 0 0
1801 9 1 1.7182620443833432 19.016508747490832 9.779117273180827 0 0 0
1803 9 1 1.6106517063989652 19.234399149888105 12.431233803546322 0 0 0
1800 9 1 2.2195390219305695 19.784550146145712 8.577375541513943 0 0 0
1802 9 1 2.0891661404151245 19.777172978816303 11.086801436467773 0 0 0
4038 19 1 10.243864115269352 14.761784854679277 5.800378797022344 0 0 0
4262 20 1 13.627008073168499 16.7997863534005 5.694169187251275 0 0 0
4042 19 1 10.162491476693848 14.52476677632612 10.788391869718144 0 0 0
4040 19 1 10.428956151707595 14.817476441648425 8.26875791264454 0 0 0
4039 19 1 9.860323910929289 15.586475618405505 7.058711610517921 0 0 0
4041 19 1 9.852011541732304 15.357477635294616 9.563886555122979 0 0 0
4043 19 1 9.647497018530023 15.239798569303687 12.067159856944615 0 0 0
4265 20 1 13.600359492827522 17.697368058756 9.633571432734291 0 0 0
4263 20 1 13.175956139906683 17.453980350333076 7.048873232156373 0 0 0
4266 20 1 13.991049350192691 16.809414218115904 10.790069642341411 0 0 0
4264 20 1 13.757390503224869 16.878967649912745 8.35314117470915 0 0 0
4267 20 1 13.698229842007654 17.53483568706963 12.119597297245686 0 0 0
4488 21 1 9.997952721315686 19.151080527221872 8.608517069103137 0 0 0
4490 21 1 10.019718742750072 19.020482527578707 11.128267769836613 0 0 0
4491 21 1 9.850080733716144 19.769470315377163 12.441561309176716 0 0 0
4489 21 1 9.954574391434406 19.892857885588775 9.91554777440462 0 0 0
4487 21 1 9.722730633702646 19.94611842333797 7.326714225773841 0 0 0
2246 11 1 2.742642648351361 23.954599608835068 6.207850101667266 0 0 0
2475 12 1 6.185022914440156 26.78484543491946 11.157758820683846 0 0 0
2473 12 1 6.1171116020238046 0.03050885276606166 8.644938522302809 0 1 0
2022 10 1 5.8552165199623545 21.18369466176008 7.410972637299473 0 0 0
2476 12 1 5.857034615143683 25.949864032163262 12.419401675614122 0 0 0
2474 12 1 6.019161254401941 26.046736402696254 9.878730159525627 0 0 0
2472 12 1 6.111021538744179 26.24304567577382 7.325596329681456 0 0 0
2026 10 1 5.546986377595319 21.466948593747475 12.503199393978893 0 0 0
2024 10 1 5.787738439888341 21.296302046434775 9.957717046755157 0 0 0
2250 11 1 2.7623345584592593 23.956179132378033 11.415797004633308 0 0 0
2251 11 1 1.8503235861671072 24.032532155619606 12.666890733277302 0 0 0
2023 10 1 6.193443980035252 21.970118823092562 8.642047299830894 0 0 0
2025 10 1 6.115946717580865 22.082769935285334 11.207273268296383 0 0 0
2247 11 1 2.063822461563619 24.174527330077524 7.594349922921321 0 0 0
2248 11 1 2.8498062081764517 23.819920509280486 8.848698850975305 0 0 0
2249 11 1 1.9781871551390764 23.727578400879295 10.117054214023891 0 0 0
5163 24 1 13.352449163806636 26.297219156405042 12.152895899554538 0 0 0
5161 24 1 13.295678965570538 26.305830302028937 9.644576921957208 0 0 0
4712 22 1 13.784777682102366 21.311701788013856 8.571250518430562 0 0 0
5159 24 1 13.491045471653118 26.135242953122848 7.053922509295331 0 0 0
4714 22 1 13.585652436027424 21.211066914889813 11.050155506332313 0 0 0
5162 24 1 14.146818068702622 26.422267103683396 10.878317273335261 0 0 0
4713 22 1 13.552309282155145 22.162313412601463 9.860630795965548 0 0 0
4715 22 1 13.290754250921303 21.953305033625448 12.383759582705261 0 0 0
5160 24 1 14.194361906470318 26.440621382583977 8.398833819973735 0 0 0
4711 22 1 14.059914224213221 22.2057640415278 7.393159974985011 0 0 0
4933 23 1 9.39688013493692 23.987368533384156 7.304133963312921 0 0 0
4934 23 1 10.119632477311345 23.483514132781544 8.550481979040697 0 0 0
4935 23 1 9.54120069747271 24.201573103155823 9.788930967003253 0 0 0
4937 23 1 9.155290370406982 24.109826634626423 12.321045703860541 0 0 0
4936 23 1 9.913656466429062 23.524129199710302 11.086769298289452 0 0 0
239 2 1 6.352245868512132 4.039983345481232 13.832783622142733 0 0 0
12 1 1 2.69154942959046 1.2371527245916185 13.673083371395036 0 0 0
241 2 1 6.2482947496974734 3.9562036608097166 16.2963570468187 0 0 0
240 2 1 5.415798860874097 4.131606481625758 15.030970941659074 0 0 0
242 2 1 5.442307962945287 3.8895623268350077 17.53154432597609 0 0 0
243 2 1 6.2751657708944775 3.8262455452738053 18.808543586715146 0 0 0
14 1 1 2.655247134326299 1.2203220347465729 16.160174469436534 0 0 0
16 1 1 2.5090606333299412 1.2187660861075869 18.735217178545167 0 0 0
462 3 1 1.893819423328774 5.5062685188553 14.798631004833442 0 0 0
13 1 1 1.7999584354073683 1.5170041173527904 14.875744613547639 0 0 0
464 3 1 2.196807476156948 5.406827952529986 17.28663674186371 0 0 0
461 3 1 1.8475835701350303 6.461692925136627 13.604753323917556 0 0 0
15 1 1 1.8346656157854908 1.4741608244836695 17.406187188959805 0 0 0
463 3 1 1.897962545567251 6.297446801113169 16.1067181552281 0 0 0
465 3 1 1.7777598273053588 6.049879512411328 18.6621181323178 0 0 0
244 2 1 5.367314177975026 4.058424709139632 20.08923594265027 0 0 0
466 3 1 1.9397918644848948 5.262566799093798 19.938834460610114 0 0 0
2481 12 1 6.2758160394542175 26.769958821896083 18.791192687894455 0 0 0
3147 15 1 9.932451977017715 6.077181900504457 13.573836476167239 0 0 0
2924 14 1 14.27476217897646 3.367660092307303 13.802693459538103 0 0 0
2700 13 1 10.210230920207252 1.6551618106589088 13.265415430308046 0 0 0
2925 14 1 13.663823006049883 3.8404040431855084 15.089593797822552 0 0 0
2927 14 1 13.606601200217549 3.637919694826483 17.585185003898808 0 0 0
2703 13 1 9.364110306125909 1.717677349356822 17.098339920028646 0 0 0
2926 14 1 14.416402483247888 3.315542889673537 16.36336569562919 0 0 0
2928 14 1 14.239513144818146 3.105053503084359 18.83861378917033 0 0 0
2701 13 1 9.43493693887644 1.7811747660451904 14.566138771664745 0 0 0
2704 13 1 10.137085536906785 1.2526857177996837 18.31655211662165 0 0 0
2702 13 1 10.215496236412992 1.4434305578795066 15.856920760841 0 0 0
3151 15 1 9.948431071516287 5.727107899024844 18.624378954162967 0 0 0
3149 15 1 9.884156333947024 5.97339149044857 16.146796225784215 0 0 0
3148 15 1 9.171913352648433 6.425542557748494 14.875297558292157 0 0 0
3150 15 1 9.092545158962453 6.147078534360067 17.404956724126777 0 0 0
3152 15 1 9.430871704277203 6.239384724301366 19.9435215373074 0 0 0
2705 13 1 9.624815793815236 1.7213462459289919 19.688579974821245 0 0 0
2929 14 1 13.325379403053642 3.2117973862378215 20.002328505074583 0 0 0
910 5 1 2.1300120962893416 10.987228799948541 13.63352146583556 0 0 0
685 4 1 6.068827394668807 8.257018067123756 13.787791366889913 0 0 0
686 4 1 5.281966168916605 8.027277753513873 15.107928551680107 0 0 0
688 4 1 5.124218728448411 8.353443241910867 17.587827609331026 0 0 0
689 4 1 5.818280944120192 8.514704813551509 18.94886931923992 0 0 0
912 5 1 2.1435496967327676 11.080705366929227 16.2440190450997 0 0 0
914 5 1 2.263984539206963 10.976202148893622 18.84778308724359 0 0 0
687 4 1 5.961252964528284 8.578856472316772 16.395842294218763 0 0 0
911 5 1 1.640834562998148 10.421942225258029 14.968904256086905 0 0 0
913 5 1 2.0121687336523033 10.282902501665578 17.550295947419784 0 0 0
1136 6 1 5.606018616017785 12.981038572007302 17.32800261953996 0 0 0
915 5 1 1.885160723670757 10.146650812262138 20.04319380243974 0 0 0
690 4 1 5.016407611069867 8.486521124842755 20.227561997155775 0 0 0
1134 6 1 5.766232186383736 12.469312575305871 14.821360722042684 0 0 0
1135 6 1 6.48121683997362 12.900403018647511 16.11725391829914 0 0 0
1133 6 1 6.517403431261146 12.64009218046805 13.471744616623495 0 0 0
1138 6 1 5.549019559611509 13.078067425276444 19.971610299740178 0 0 0
1137 6 1 6.267221660078051 13.447464146707924 18.58597225716454 0 0 0
3376 16 1 13.695787056750598 7.710904533207148 18.696547818985028 0 0 0
3372 16 1 13.660800843400676 7.805672215440876 13.609307937884237 0 0 0
3374 16 1 13.686457981067592 7.824493977519919 16.155405887910817 0 0 0
3596 17 1 10.362960835453997 10.222776521579753 13.727873688423191 0 0 0
3375 16 1 13.864491683606 8.606647559590971 17.469022574115755 0 0 0
3599 17 1 9.50165955497933 10.396023806011945 17.527330735198493 0 0 0
3373 16 1 13.573015307035666 8.629879276114224 14.85580014679103 0 0 0
3597 17 1 9.550785637170588 10.43678673336272 14.929323145061026 0 0 0
3598 17 1 10.240239232965534 10.084379480669476 16.29292509309948 0 0 0
3600 17 1 10.017005949007583 9.874707791741947 18.795930863523548 0 0 0
3824 18 1 14.185501756562326 12.242586051196033 18.513550500023364 0 0 0
3820 18 1 14.278842641253917 12.458147714060308 13.492969897328704 0 0 0
3822 18 1 14.245447332370176 12.420871705499891 16.03001436396745 0 0 0
3823 18 1 13.752199922938381 13.07033188383008 17.32405540097924 0 0 0
3821 18 1 13.685565734606373 13.038816808463622 14.80750359383239 0 0 0
3825 18 1 13.618966354406663 12.866013069460388 19.835645673973694 0 0 0
3377 16 1 13.967568227377024 8.48224479304836 20.02598366284878 0 0 0
3601 17 1 9.385819651949674 10.585032270865211 19.95672975794545 0 0 0
1359 7 1 1.5622720350555652 15.010022616110746 17.472616152055664 0 0 0
1579 8 1 6.1221678757524085 17.656765387469747 13.741634550160141 0 0 0
1357 7 1 1.5018229824946436 15.170215955729336 14.81992722932015 0 0 0
1356 7 1 2.316049904933388 15.291431773765561 13.519392507733011 0 0 0
1358 7 1 2.3633320896033956 15.123512930502905 16.169593152574524 0 0 0
1360 7 1 2.4451475125405935 14.983751168170865 18.716268169804273 0 0 0
1580 8 1 5.372567766506145 17.41316981372814 15.025294377407388 0 0 0
1583 8 1 6.154344459230312 17.653592333130966 18.89898472736189 0 0 0
1582 8 1 5.462381547975165 17.170054489036076 17.592081047919425 0 0 0
1581 8 1 6.240048047593567 17.53916552117751 16.26629681667315 0 0 0
1805 9 1 1.9139816061335808 19.313862114623554 14.936518241402467 0 0 0
1807 9 1 1.8332243449701466 19.1535562587947 17.46203092099912 0 0 0
1808 9 1 2.293880209122409 19.670489448956893 18.79825127077499 0 0 0
1361 7 1 1.5191151794348206 14.989691252103768 19.943817378419702 0 0 0
1809 9 1 1.6854967455279788 18.950419288536565 19.97209159194974 0 0 0
1804 9 1 2.1252208308083356 20.061792395588824 13.612344095045547 0 0 0
1806 9 1 2.1384246602666455 20.02309494569679 16.264875136018496 0 0 0
1584 8 1 5.332957166315534 17.230403911177483 20.111963888443018 0 0 0
4044 19 1 9.673102837658451 14.407234432543003 13.369763854178524 0 0 0
4268 20 1 14.009237405107463 16.80959115857015 13.438566597722598 0 0 0
4047 19 1 9.3273959548696 15.042576728462569 17.250122558484286 0 0 0
4048 19 1 9.890664591088155 14.358174518643144 18.489754879633278 0 0 0
4046 19 1 9.704721012432874 14.437286940229198 15.883143193410696 0 0 0
4270 20 1 13.740986363873398 16.693090417856695 15.980115330845258 0 0 0
4045 19 1 9.321064479094192 15.24647336698751 14.649295502773688 0 0 0
4269 20 1 13.454852512636917 17.51843304458685 14.708685366622419 0 0 0
4271 20 1 13.385651283614175 17.41338524501056 17.348840938866676 0 0 0
4272 20 1 13.646972643980485 16.72084738780685 18.663067080109528 0 0 0
4492 21 1 9.836605888157795 18.882578462616685 13.718356970977608 0 0 0
4494 21 1 9.842280421781037 18.90540534046591 16.23190516440131 0 0 0
4496 21 1 9.765676453402417 19.16697816771032 18.807259759104145 0 0 0
4495 21 1 9.47958675009491 19.790474639926494 17.40281709817298 0 0 0
4493 21 1 9.517347027125956 19.646455883796904 14.992264530083375 0 0 0
4497 21 1 9.222758559872313 20.072893012399923 19.932355304049036 0 0 0
4049 19 1 9.947918467947373 15.350635608423701 19.66123969718892 0 0 0
4273 20 1 13.209107429831151 17.43162422960979 19.965412632487663 0 0 0
2477 12 1 6.0263560685328335 26.744420449127936 13.696042100818158 0 0 0
2479 12 1 6.091992453924157 -0.08228799571654474 16.21785515146799 0 1 0
2252 11 1 2.575405092426806 24.273472340299016 13.98885387519824 0 0 0
2478 12 1 5.799182721989816 25.982161078314178 14.981569106839217 0 0 0
2480 12 1 5.96417103943137 26.017954918414155 17.51847425083197 0 0 0
2027 10 1 5.755653543825695 22.22889317596153 13.811645211141999 0 0 0
2030 10 1 5.662770088314908 21.52413499887225 17.585517181331575 0 0 0
2028 10 1 5.419436858642361 21.44234265089503 15.046222196586271 0 0 0
2031 10 1 5.891282732077309 22.37338702084361 18.841635057946025 0 0 0
2029 10 1 5.701514143899202 22.28118413715258 16.264974319863658 0 0 0
2254 11 1 2.3536391052652212 24.324844516843477 16.59096380663313 0 0 0
2256 11 1 2.215315596865661 24.362084999286715 19.10696240419182 0 0 0
2253 11 1 1.731041824285133 23.978003927244643 15.162007613097675 0 0 0
2255 11 1 1.5551257852935005 23.959421811625766 17.82314525692057 0 0 0
2032 10 1 5.6935873674480995 21.60692605483335 20.13658494620081 0 0 0
5165 24 1 13.28435570964733 25.831515916362846 14.670267424442669 0 0 0
4718 22 1 13.28720502998013 21.17258582171422 16.285503718004804 0 0 0
4716 22 1 13.571099484536578 21.24151897480609 13.716379928381995 0 0 0
4720 22 1 13.333264587140908 21.388867910694792 18.879723850339847 0 0 0
5167 24 1 13.130806690745233 25.808114897083932 17.341876606447503 0 0 0
5164 24 1 14.193139758782484 26.00622053160648 13.408701301661736 0 0 0
5168 24 1 13.910015418658494 26.224928078695804 18.597455820195517 0 0 0
5166 24 1 13.905682007983689 26.052922595591184 16.04595069595756 0 0 0
4717 22 1 13.038730482422189 21.925747702129193 14.997131118879668 0 0 0
4938 23 1 9.373797134956812 23.405018510796225 13.723984997274885 0 0 0
4719 22 1 12.98532448524948 22.039375012933228 17.546640282678716 0 0 0
4941 23 1 9.247775054493346 24.40762076230758 17.439164548908828 0 0 0
4939 23 1 9.137858284284343 24.334623228753166 14.899822753312723 0 0 0
4940 23 1 9.434362172267807 23.60512346515663 16.160117410071482 0 0 0
4942 23 1 9.800304666540828 23.671622718244976 18.66007632453661 0 0 0
4943 23 1 9.43146051112044 24.545087867103994 19.894171335160785 0 0 0
5169 24 1 13.322506086593924 25.713412531959868 19.921296995410064 0 0 0
4721 22 1 13.099249280358736 22.195173522965426 20.19281847452994 0 0 0
17 1 1 1.6590922300342799 1.37075143657773 19.94112357184204 0 0 0
247 2 1 6.169871227442628 4.123243264498004 24.019291373792708 0 0 0
245 2 1 6.159953642426483 4.145429148559442 21.42719523569637 0 0 0
248 2 1 5.407223362548 4.169591229883568 25.319717048489554 0 0 0
246 2 1 5.329481449975033 4.122830176427887 22.697457665699606 0 0 0
18 1 1 2.467589491876511 1.1730790453439457 21.248097960671842 0 0 0
249 2 1 6.186286856897533 3.821262134419238 26.63863863300301 0 0 0
20 1 1 2.454228388859304 1.3654636775406115 23.83351767712026 0 0 0