LAMMPS data file via write_data, version 29 Oct 2020, timestep = 32000000

10752 atoms
2 atom types
10752 bonds
3 bond types
10752 angles
3 angle types
10752 dihedrals
3 dihedral types

-1.4019591925125496e-01 3.1008115919238300e+01 xlo xhi
-1.2113307625790526e-01 2.6791853076229280e+01 ylo yhi
 3.7203961789413086e+01 2.4579539820997937e+02 zlo zhi

Masses

1 14
2 15

Pair Coeffs # lj/cut/omp

1 0.0914 3.95
2 0.1947 3.75

Bond Coeffs # harmonic/omp

1 449.5 1.53
2 449.5 1.53
3 449.5 1.53

Angle Coeffs # harmonic/omp

1 62.0967 114
2 62.0967 114
3 62.0967 114

Dihedral Coeffs # opls/omp

1 1.411 -0.271 3.145 0
2 1.411 -0.271 3.145 0
3 1.411 -0.271 3.145 0

Atoms # molecular

1            1            1     0.129974      21.2017      38.9569
2            1            1     0.366269      22.5966      39.5365
3            1            1     0.402509      22.3168      40.9645
4            1            1     0.484828      23.7084      41.6104
5            1            1     0.192324      23.5848      43.0718
6            1            1     0.863761      24.6549      43.8656
7            1            1     0.147944      24.8663      45.1863
8            1            1     0.706255      25.9907      45.9726
9            1            1      1.47683      25.5626      47.1442
10            1            1      1.91047      26.7282      47.9588
11            1            1      2.89076      26.4025      48.9974
12            1            1      3.35397     0.693583      49.7854
13            1            1      2.11784      1.33747      50.4436
14            1            1      2.50238       2.4943      51.2751
15            1            1      3.39762       1.9684      52.3104
16            1            1      3.91293      3.08114       53.053
17            1            1      4.78014      2.65323      54.2201
18            1            1      5.27672      3.88639      54.9637
19            1            1      6.10819      3.60118      56.1112
20            1            1      6.01174      4.67088       57.174
21            1            1      4.74104      4.82088      57.9478
22            1            1      5.08715      5.57957         59.2
23            1            1      5.56924       4.5828      60.1847
24            1            1      4.45152      4.06593      60.9764
25            1            1      4.83608      2.91637      61.9291
26            1            1      3.75837      2.27347      62.7987
27            1            1      4.49298      1.39244      63.6875
28            1            1      3.72014      1.04308      64.8113
29            1            1      4.41581     0.303091      65.9137
30            1            1       5.6796     0.953467      66.2918
31            1            1       6.3497     0.245489      67.4379
32            1            1      5.39233    -0.144556      68.5243
33            1            1      6.08969      25.8339      69.4716
34            1            1      7.04197      26.6534      70.2798
35            1            1      7.73585      25.6517      71.1938
36            1            1      6.73417      24.8146      71.9669
37            1            1      7.51341      23.9973      72.9218
38            1            1      8.02725      24.9844      73.9462
39            1            1      8.93976      24.2909      74.8571
40            1            1       8.0914      23.3265      75.7801
41            1            1      9.07388      22.3633       76.439
42            1            1      9.94653      23.1471      77.3253
43            1            1      10.4484      22.2542       78.442
44            1            1      9.51646      21.4058      79.2217
45            1            1      10.1616      20.5438      80.2878
46            1            1      11.2141      21.2504      81.0407
47            1            1      11.8526      20.4931      82.1814
48            1            1      12.7998      21.4154      82.9913
49            1            1      12.0019      22.5204      83.6245
50            1            1      12.3573      23.0926      84.9704
51            1            1      13.8756      23.2219      85.0496
52            1            1      13.9715       24.313      86.0527
53            1            1      12.8668      24.2617       87.114
54            1            1      13.1989      25.2643       88.193
55            1            1      12.1192      25.1418      89.3225
56            1            1      11.9296      23.7732      89.8959
57            1            1      11.1684      23.8383      91.0881
58            1            1      10.3535      25.1425      91.1892
59            1            1      9.24055      24.8742      92.2111
60            1            1      9.78303      23.8723      93.1246
61            1            1      8.90323      23.3731      94.2948
62            1            1       8.4665      24.6816      94.9076
63            1            1      7.88482      24.5201       96.337
64            1            1       7.3986      25.8881      96.7524
65            1            1      6.79011      25.8176      98.0632
66            1            1      5.73604      24.8432      98.1013
67            1            1      5.12593      24.5631      99.4584
68             1             1       4.88854       25.8243       100.283
69             1             1       4.84572       25.4451       101.707
70             1             1       3.56568       24.7663       101.888
71             1             1       3.30796       24.4986       103.276
72             1             1       2.69388       25.6057       104.089
73             1             1       1.81833       25.1414       105.245
74             1             1        1.6921       26.3531       106.116
75             1             1      0.759315       25.8492       107.146
76             1             1      0.436288     -0.122537       108.282
77             1             1       1.77705      0.287424       108.855
78             1             1       1.62415        1.2377       110.037
79             1             1        2.8183       1.09032       110.924
80             1             1       2.85433        2.2974       111.719
81             1             1       3.97086       2.49328       112.736
82             1             1       3.65595         3.702        113.58
83             1             1       4.55308       3.77115       114.787
84             1             1        4.1695       4.87524       115.667
85             1             1        5.2333       5.07921       116.729
86             1             1       5.22388       3.90282       117.699
87             1             1       6.51725       3.88598       118.421
88             1             1       6.52648       2.90812       119.531
89             1             1       5.56722       3.08789       120.743
90             1             1       5.34038        1.8508       121.607
91             1             1       4.27579       2.13781        122.69
92             1             1       3.92015       1.08676       123.659
93             1             1       2.93106       1.44285       124.736
94             1             1       2.54805      0.211169       125.543
95             1             1       1.53096      0.606554       126.567
96             1             1       1.14107       26.3179       127.381
97             1             1       1.99383       26.0922       128.559
98             1             1       2.11837      0.306322       129.539
99             1             1       2.96504       26.5461         130.6
100             1             1        3.5926      0.490597       131.647
101             1             1       2.62648       1.14748       132.615
102             1             1       3.39759       1.93387       133.594
103             1             1       2.47704       2.62712       134.534
104             1             1       3.25373       3.49226       135.501
105             1             1       2.39353        4.1202       136.598
106             1             1       3.18278       4.88924       137.581
107             1             1       2.40079       5.57525        138.62
108             1             1       3.21746       6.18344       139.752
109             1             1       2.46188        7.0568       140.658
110             1             1       3.27829       7.67968       141.741
111             1             1       2.30066       8.70395       142.434
112             1             1       3.01535       9.15129       143.755
113             1             1       2.24623       10.1814        144.51
114             1             1       3.07711       10.5581       145.732
115             1             1       2.39632       11.7574       146.471
116             1             1       3.06404       11.7992       147.803
117             1             1       2.65522       12.9855       148.608
118             1             1       1.32322       12.6892       149.198
119             1             1       1.54493       11.7206       150.264
120             1             1      0.291041       11.6318        151.02
121             1             1      0.397269       10.9394       152.394
122             1             1        1.7825       10.8456       152.914
123             1             1       1.83921       9.82922       153.954
124             1             1      0.534089       9.71539       154.737
125             1             1      0.665832       8.59343       155.763
126             1             1       1.89421       8.84247       156.672
127             1             1       2.09586       7.66355       157.585
128             1             1      0.749756        7.1163       158.078
129             1             1        1.1781       6.18955       159.208
130             1             1    -0.0311629       5.75566       160.027
131             1             1      0.486866       4.86378       161.035
132             1             1       30.6635       4.44416       162.046
133             1             1      0.145089       3.76148       163.189
134             1             1       30.4999       3.08656       164.229
135             1             1      0.179804       2.61982       165.324
136             1             1       30.4575        1.7754       166.181
137             1             1       0.26287       1.22932       167.126
138             1             1       30.9263      0.944931       168.428
139             1             1      0.321388       26.8181        169.29
140             1             1       30.7001       26.3112       170.502
141             1             1      0.315778       25.3084       171.388
142             1             1       30.3151       24.5721       171.983
143             1             1       29.2898       25.5333       172.592
144             1             1       28.6279       24.8539       173.774
145             1             1       29.4226       23.6796       174.176
146             1             1       28.4969       22.9367       175.088
147             1             1       27.5848       23.6188       176.129
148             1             1       28.3339       23.8327       177.429
149             1             1        27.512       24.5864       178.388
150             1             1       26.6105       23.6749       179.153
151             1             1       25.6783       24.5684       179.873
152             1             1       26.3727        25.669       180.625
153             1             1       25.3899       26.4765       181.437
154             1             1        26.121      0.597145       182.247
155             1             1       25.2729       1.09184       183.441
156             1             1       24.3292    -0.0147387       183.903
157             1             1       23.4194      0.564172       184.846
158             1             1       24.2702       1.32164         185.9
159             1             1       23.4804       2.00166       187.053
160             1             1       22.5636      0.963512       187.514
161             1             1       21.7386       1.83877       188.482
162             1             1       22.6811       2.81182       189.233
163             1             1        21.882        3.6659       190.214
164             1             1       22.7391       4.06005       191.357
165             1             1       21.9183       4.91673       192.322
166             1             1       22.7594       5.38798       193.533
167             1             1       23.3735        4.1083       194.053
168             1             1       24.2652       4.48094       195.137
169             1             1       23.9114       5.91203       195.495
170             1             1       24.5498       6.29967       196.802
171             1             1       25.1912       5.07341       197.344
172             1             1       26.2841       5.44825       198.302
173             1             1       25.9712        6.5947       199.248
174             1             1       27.1432       7.03669        200.07
175             1             1       27.4692       5.92898       201.011
176             1             1       28.3696       6.29772       202.197
177             1             1       28.2281       7.64959       202.749
178             1             1       29.2055        7.7037       203.901
179             1             1       29.0695       6.43249       204.772
180             1             1       30.2872       6.28198       205.745
181             1             1        30.295       7.73865       206.031
182             1             1      0.200311       8.14056       206.909
183             1             1      0.559875       6.97851       207.791
184             1             1       1.20806       7.37961       209.072
185             1             1       1.69778       6.20987       209.934
186             1             1       2.42606       6.72842       211.155
187             1             1       3.14673       5.68784       211.986
188             1             1       2.40447       4.84335        212.92
189             1             1       3.20183       3.76846       213.767
190             1             1       2.45121       3.62315       215.046
191             1             1       3.17061       2.94608       216.166
192             1             1       2.17068       2.27267       217.078
193             1             1       2.92042       1.34939       217.941
194             1             1       2.26276      0.502253        219.03
195             1             1        1.2652       1.33484       219.872
196             1             1      0.402874      0.400092       220.687
197             1             1       1.45349       26.7474       221.476
198             1             1      0.930656       25.9896       222.608
199             1             1       30.7751       26.4654       223.072
200             1             1       30.1558       25.6371       224.146
201             1             1     0.0486256       25.3074       225.187
202             1             1        30.582       24.3578       226.172
203             1             1       29.3498       24.9317       226.785
204             1             1       28.6901       24.0103       227.745
205             1             1       29.7617       23.3111       228.467
206             1             1       29.0139        22.568       229.559
207             1             1       27.9747       23.3764       230.263
208             1             1       27.6107       22.7033       231.597
209             1             1       28.3994       21.4777       231.865
210             1             1       28.2779       20.8317       233.211
211             1             1         26.85       21.0157       233.716
212             1             1       26.6563       20.3346       235.032
213             1             1        27.896       20.2053       235.835
214             1             1       27.5996       19.5885       237.206
215             1             1       28.8699       19.1644        237.82
216             1             1       28.6093       18.3998       239.065
217             1             1       29.8152       17.7827       239.693
218             1             1       30.2369       18.4585       240.955
219             1             1    -0.0479579       17.5304       241.698
220             1             1      0.553553       18.2529       242.843
221             1             1        30.574       19.0603       243.507
222             1             1     -0.121699       19.9731       244.589
223             1             1       29.9491       20.3779       245.552
224             1             1       30.4359       21.5354       37.8034
225             2             1       4.57951       20.5667       242.522
226             2             1       3.32788       21.0023       243.306
227             2             1       3.70901        22.168       244.288
228             2             1       2.69577       22.4004        245.47
229             2             1       3.36775        22.818       38.0808
230             2             1       4.30133       24.0524       37.8831
231             2             1       4.54956       24.4636       39.2944
232             2             1       3.35196       24.6273       40.2241
233             2             1       3.76591       25.1282       41.5193
234             2             1       4.87329        26.089       41.3296
235             2             1       5.02886       26.6864       42.7523
236             2             1       3.81608    -0.0510001        43.398
237             2             1       3.69963      0.140582       44.8649
238             2             1       4.38625       1.35928       45.4209
239             2             1       5.19291       0.93367       46.6169
240             2             1       6.03161       2.12828         47.15
241             2             1       6.76466       1.64752       48.4045
242             2             1       7.13198       2.74608        49.402
243             2             1       5.75955       3.24878       49.7657
244             2             1       6.06709       4.38032       50.7103
245             2             1       7.31264       4.05034       51.4606
246             2             1       7.54375       5.10859       52.5306
247             2             1       8.54208       4.75365       53.5926
248             2             1       8.63152        5.8627       54.6039
249             2             1       9.53083       5.57007       55.7606
250             2             1       9.64719       6.65116       56.7545
251             2             1       8.33883       7.00581       57.3895
252             2             1       8.25005       8.00772       58.5483
253             2             1       8.87726       7.53804       59.8549
254             2             1       7.84273       6.93084       60.5789
255             2             1       8.65728        5.9914       61.4523
256             2             1       7.70739       5.25125         62.37
257             2             1       8.36601        4.4035       63.4793
258             2             1       7.45353       3.61682       64.4281
259             2             1       8.31076       2.81256       65.4442
260             2             1        9.6234        3.4264         65.57
261             2             1       10.3963       2.70294       66.5831
262             2             1       9.25071       2.59705       67.5431
263             2             1       9.37636       1.51361       68.6196
264             2             1       10.2191       1.93737       69.7189
265             2             1       10.2788      0.821745       70.6828
266             2             1        11.108      0.975489       71.9013
267             2             1       10.9494       26.6642       72.8332
268             2             1        11.923       26.7514       73.9868
269             2             1       11.6856       25.7586       75.0682
270             2             1       12.8047       25.8118       76.0671
271             2             1       13.1976       24.5668       76.9243
272             2             1       13.9887       24.9376       78.1317
273             2             1       14.1658       23.7373       79.1296
274             2             1       15.1182       24.0132         80.24
275             2             1       15.2655       22.7802       81.1486
276             2             1       16.3884       23.0968       82.1215
277             2             1       16.0029       24.3077       82.9791
278             2             1       17.1117       24.5047       83.9915
279             2             1       16.7677       25.5117       85.1209
280             2             1       17.7773       25.4496       86.2483
281             2             1       17.8255        26.589       87.2256
282             2             1       16.4073       26.5886        87.732
283             2             1       16.5904      0.695967       88.8461
284             2             1       15.4452      0.628225       89.7648
285             2             1       15.5898       26.1895       90.4157
286             2             1       14.4049       25.9761       91.3666
287             2             1       14.2013      0.209236       92.3214
288             2             1       13.0147     -0.129993        93.218
289             2             1       13.2344       25.6304       94.2222
290             2             1       12.0041        25.375       95.0661
291             2             1       11.9637       26.6507       95.8015
292             2             1       10.8998       26.5005       96.8926
293             2             1       10.7723      0.764363       97.7088
294             2             1       10.0098      0.520269       98.9811
295             2             1       9.63488       1.84034         99.62
296             2             1        9.1968        1.6943       101.024
297             2             1       7.99822       0.78428       100.944
298             2             1       7.67856      0.152817       102.272
299             2             1       7.16492       1.16366       103.241
300             2             1       6.43769      0.552109        104.45
301             2             1        5.9377       1.50535        105.47
302             2             1       5.11565        0.6726       106.434
303             2             1         4.425       1.49103       107.436
304             2             1        5.2042       2.71061        107.86
305             2             1       5.89386       2.45072        109.19
306             2             1       5.71924       3.73349       110.058
307             2             1       6.51403       3.76768       111.364
308             2             1       6.34458       5.02528       112.124
309             2             1       7.26138       4.82526       113.276
310             2             1       7.15068       5.93157        114.32
311             2             1       8.29974       5.78864       115.356
312             2             1       8.43561       7.12818       116.084
313             2             1       9.40482       6.99883       117.229
314             2             1       9.06423       5.94369       118.256
315             2             1       10.2485       5.92271        119.26
316             2             1       9.98848       4.68797       120.137
317             2             1       8.99462       4.97482       121.256
318             2             1       8.51784       3.75155       122.066
319             2             1       7.66097       4.30984       123.126
320             2             1       7.47602       3.14763         124.1
321             2             1       6.37822       3.57953       125.069
322             2             1       6.18578       2.70711       126.235
323             2             1        4.9417       2.88555       127.059
324             2             1       4.71698       1.69646       127.998
325             2             1        5.8585       1.35929       128.826
326             2             1        6.3456       2.54726       129.608
327             2             1       7.61597       2.25304       130.389
328             2             1       7.55852       3.38303       131.362
329             2             1       6.25802       3.16961       132.134
330             2             1       6.17323       4.36583       133.121
331             2             1       7.51816       4.31217       133.791
332             2             1       7.54568       5.45288       134.819
333             2             1       6.09527       5.45993       135.377
334             2             1       5.94437       6.40937       136.517
335             2             1       7.39007       6.59601       136.971
336             2             1       7.34968       7.58489       138.074
337             2             1       6.03971       7.84889       138.866
338             2             1       6.07944       9.09202       139.684
339             2             1        7.4187       9.29915        140.48
340             2             1       7.34468       10.2983       141.535
341             2             1       5.93301       10.2691        142.17
342             2             1       5.71933       11.3084       143.221
343             2             1       7.03866       11.6074       143.834
344             2             1       6.95019       12.7412         144.8
345             2             1       5.66723       12.7163        145.66
346             2             1       5.63143        13.922       146.602
347             2             1       6.83809       13.7738        147.56
348             2             1       7.04414       15.0097       148.366
349             2             1       5.79444       15.4353       149.133
350             2             1       5.67813       14.5089       150.296
351             2             1       4.38812       14.6011       151.016
352             2             1       4.39587        13.457       152.004
353             2             1       5.70209       13.5024       152.796
354             2             1       5.70636       12.4697       153.982
355             2             1        4.2213       12.2388       154.432
356             2             1       4.17142       11.2699       155.637
357             2             1       5.59156       10.9532       155.916
358             2             1       5.77678       9.65575       156.644
359             2             1       5.01734       9.58159       157.965
360             2             1       5.61511       8.37175       158.702
361             2             1       4.80394       8.07966       159.951
362             2             1       5.65833       7.10584       160.614
363             2             1       5.33587       6.76226       162.077
364             2             1       3.77356       6.56397       162.008
365             2             1       3.13573       6.38668       163.284
366             2             1       3.84478       5.36458        164.17
367             2             1       3.01434       4.87817       165.346
368             2             1       3.79586       4.08594       166.331
369             2             1       2.87238       3.27966         167.3
370             2             1       3.72408       2.58049       168.337
371             2             1        3.0043       2.02142       169.506
372             2             1       4.02137       1.34244       170.405
373             2             1       3.57088      0.329976       171.486
374             2             1       2.62851      0.734324       172.548
375             2             1       2.35022       26.4464       173.474
376             2             1       1.44653     -0.133104       174.684
377             2             1      0.832445       25.5383       175.376
378             2             1    -0.0266115       25.9082       176.526
379             2             1      0.716633       26.6634       177.571
380             2             1     -0.208517      0.459492       178.546
381             2             1       29.7565       26.6453       179.185
382             2             1        28.824      0.581874       180.059
383             2             1       29.6617       1.29645       181.118
384             2             1         29.02       2.09938       182.103
385             2             1       29.9776       2.51745       183.216
386             2             1       29.2071       3.33801       184.165
387             2             1       27.9932       2.57813       184.618
388             2             1       27.0544       3.43031       185.385
389             2             1       27.8445       4.17697       186.524
390             2             1       27.1081       4.80253       187.615
391             2             1       26.0172       3.95907       188.183
392             2             1       25.3562       4.71497       189.248
393             2             1       26.2278       5.16512       190.353
394             2             1       25.5887       6.10619       191.356
395             2             1       26.4136       6.11494       192.635
396             2             1       26.6004       7.44946       193.234
397             2             1       27.0353       7.17502       194.626
398             2             1       28.2769       6.31913       194.618
399             2             1       28.9649       6.35384       195.984
400             2             1       28.5822       7.69719       196.683
401             2             1       29.7874        7.9425       197.595
402             2             1       29.4379       9.11538       198.385