LAMMPS data file via write_data, version 23 Jun 2022, timestep = 11112117

8487 atoms
2 atom types
8471 bonds
3 bond types
8455 angles
3 angle types
8439 dihedrals
3 dihedral types

0 36.89775039 xlo xhi
0 26.67072 ylo yhi
25.827395636499404 210.92420876344863 zlo zhi
0 5.823548768924049 0 xy xz yz

Masses

1 14
2 15

Pair Coeffs # lj/cut/omp

1 0.0914 3.95
2 0.1947 3.75

Bond Coeffs # harmonic/omp

1 449.5 1.53
2 449.5 1.53
3 449.5 1.53

Angle Coeffs # harmonic/omp

1 62.0967 114
2 62.0967 114
3 62.0967 114

Dihedral Coeffs # opls/omp

1 1.411 -0.271 3.145 0
2 1.411 -0.271 3.145 0
3 1.411 -0.271 3.145 0

Atoms # molecular

1 8 1 14.405383829563561 0.16968404144737553 40.580233747652564 0 0 0
2 8 1 14.789278449744735 0.6355148934530936 42.012620168403046 0 0 0
3 8 1 16.147694023676223 0.16609313549117244 42.61560411776729 0 0 0
2894 18 1 14.660834565029603 10.00799638159183 29.619116057528345 0 0 0
6414 31 1 1.6873612112724494 5.487008857561541 36.543866484610305 0 0 0
4803 46 1 1.3954018187736827 11.220115203286687 41.784939840891354 1 0 0
8276 1 1 0.8429256915266028 24.890497301651568 29.454722385856176 0 0 0
2891 18 1 12.252925100332487 9.303950164120765 26.44361323313828 0 0 0
665 5 1 5.50447911635707 5.7701445040763835 30.188503552591897 0 0 1
4507 31 1 2.502053556972056 2.8323366589657306 44.04688259187283 1 0 0
3884 28 1 17.43832099552548 21.437905207027374 27.370082193962343 0 0 0
215 2 1 6.571515405347028 0.35233684914025687 30.76766372042977 0 0 1
2895 18 1 15.319308946311452 9.106298771776078 30.674256901922448 0 0 0
6180 4 1 4.4356993176072175 3.4528655066560106 34.488320475699076 1 0 1
3552 22 1 15.06496111935403 14.346439768822512 29.266525829230424 0 0 1
4506 31 1 1.4977763324266111 3.5206743299362295 43.165480216807865 1 0 0
3823 25 1 13.247556230362157 19.032848990518797 27.540913942059454 0 0 0
1656 44 1 10.608936246394082 16.6631992684062 29.73072420250297 0 0 0
220 8 1 9.800828316745958 0.8824778162984624 36.164498675979196 0 0 0
221 8 1 11.198443557020536 0.5636529826994342 36.794743456715715 0 0 0
222 8 1 11.592519423425777 1.022593214642628 38.17115641070013 0 0 0
223 8 1 12.873065258301951 0.4037219954736936 38.738973041419484 0 0 0
224 8 1 13.170492024883373 0.9120184746605784 40.11697377243145 0 0 0
225 60 1 11.565333524627112 3.2312630451817346 32.10958626931938 0 0 0
226 60 1 12.488748794565389 2.3689837138881664 32.95406205945653 0 0 0
3556 22 1 18.184687609202943 14.251916206848117 33.3033749090675 0 0 1
5443 57 1 1.4516486916596094 20.1708662012031 41.925765661705 1 0 0
1673 51 1 12.581513170178097 17.953214545168514 39.535584363213886 0 0 0
1436 48 1 2.823088170632178 14.622143464898173 26.348117976172897 0 0 0
232 60 1 17.30959407412579 2.385650364976785 38.97112740032533 0 0 0
2142 53 1 4.196592841661255 23.577857808391492 28.095422667453683 0 0 0
227 60 1 13.171826518049384 3.1933288461125575 34.06506208341713 0 0 0
4325 29 1 16.558181510414336 23.320248007685187 31.470640179406686 0 0 1
1887 11 1 8.043426050726689 21.100503466974864 26.059258106353848 0 0 0
2141 53 1 3.678881653602327 23.07608450218605 26.7773723997225 0 0 0
7761 62 1 2.8181743878278342 18.153190427903503 37.56754177081351 0 0 0
1438 44 1 15.328565643773581 16.568977849671935 35.663771821796296 0 0 0
445 60 1 8.59491976949429 3.0846833235522406 27.91727257957385 0 0 0
446 60 1 9.591802833438358 2.4593897910469593 28.939238833532652 0 0 0
447 60 1 10.021097976021275 3.3355540118881306 30.093174008774888 0 0 0
448 60 1 10.760326486984546 2.4107366919838586 31.102393745721436 0 0 0
449 6 1 11.972090862674186 5.298942234479655 37.98249643215643 0 0 0
450 6 1 12.721618696989895 4.555558860366026 39.07305910833024 0 0 0
451 6 1 13.35610364306284 5.362286133836234 40.182696800034506 0 0 0
452 6 1 14.221974927042094 4.456295745572902 41.03375071535065 0 0 0
453 6 1 14.969549935230905 5.2285097922603905 42.064524017654776 0 0 0
454 6 1 15.825748425859546 4.365037703660522 42.977321284327125 0 0 0
4322 29 1 14.179556458511854 22.760715376974243 28.344143354286814 0 0 1
763 8 1 7.4399485920434705 7.330361489510277 26.907830588887187 0 0 0
4326 14 1 17.586415068312377 22.469261481833023 32.0932769548572 0 0 0
2215 7 1 8.251414254870307 24.910860152882826 26.590369921781758 0 0 1
1897 11 1 15.735266800126183 20.697734884024793 36.12742280046057 0 0 0
2898 18 1 17.72821128267799 9.748485676022726 33.65560199015248 0 0 0
7308 36 1 3.5449834759689276 14.26046569641791 38.218861818350334 1 0 0
7533 57 1 4.489240871038737 16.41360442301992 33.09505950889974 0 0 0
1678 51 1 17.37481483581847 18.245431651054304 43.72934933680821 0 0 0
986 6 1 5.0565534827693375 9.205169685642547 29.12990946917396 0 0 0
3787 25 1 13.789406127709505 18.202359985110864 28.711460309887983 0 0 0
3554 22 1 16.80007790833223 14.188434131504112 31.156135075195245 0 0 1
6179 4 1 3.7847533805748017 2.6345070034638516 33.38349149892334 1 0 1
8204 63 1 1.1577608003637503 22.808666902748676 35.21423418108877 0 0 0
670 6 1 9.707215389778518 4.563444577259001 35.08588967194654 0 0 0
671 6 1 10.462031418618267 5.336464702259389 36.069681454322506 0 0 0
672 6 1 11.041372611013683 4.446779590815735 37.20238921389389 0 0 0
728 8 1 9.298367521886513 6.895242450682418 28.58846316949772 0 0 0
729 8 1 10.117739754711494 7.659706069896242 29.582425133931388 0 0 0
730 8 1 10.6862815479146 6.720795599002662 30.652171665341694 0 0 0
731 8 1 11.745266187217268 7.4266025410938505 31.58636145221399 0 0 0
732 8 1 12.228076160943692 6.652891970242155 32.81171293132356 0 0 0
2573 16 1 12.17969920311182 5.172589314119146 26.76965013169402 0 0 0
3331 20 1 17.557319435203798 12.190399241034303 27.025665145697022 0 0 1
6178 4 1 3.046593842077538 3.5336363787965888 32.41637040483019 1 0 1
4417 30 1 17.24482545539519 25.74759222225165 27.44171201346908 0 0 1
2219 7 1 11.217803966702693 24.628377509466677 30.734276739472946 0 0 1
7311 36 1 5.3502147252618 13.839475031263182 41.76901277355279 0 0 0
3822 25 1 12.36208527613557 18.314917250265843 26.559877012712846 0 0 0
8286 1 1 8.264955013091589 25.056156724170073 39.71927914202153 0 0 0
2140 53 1 2.3260959851844647 23.631707912979792 26.265092891954872 0 0 0
6860 54 1 0.9747551156892524 9.467274094925378 35.700786464402746 1 0 0
661 5 1 2.1942831777825855 5.7299096036389985 26.188682000535422 1 0 1
3330 20 1 16.425792462869158 11.462615921955374 26.365025147264323 0 0 1
764 8 1 8.726906256988814 7.832227256043241 27.547354509368283 0 0 0
765 6 1 7.611550820380614 10.045713963092405 32.09711279615031 0 0 0
766 6 1 8.361305664547187 9.166020582114726 33.139203475742164 0 0 0
767 6 1 9.263362349756724 9.960104509551652 34.07825962557347 0 0 0
768 6 1 9.52517070514273 9.307260162499153 35.38337846026149 0 0 0
769 6 1 10.60146304400212 10.029504299265081 36.21690343572125 0 0 0
770 6 1 11.226753387181043 9.11253255157431 37.251133243743915 0 0 0
771 6 1 12.523943105688735 9.704210241301789 37.86270164797869 0 0 0
772 6 1 12.864726663037205 9.06262471953378 39.19329683972438 0 0 0
773 6 1 14.04260009027866 9.663667811056639 39.97194187362592 0 0 0
774 6 1 14.399701967882317 9.099922022876768 41.31720007127177 0 0 0
7972 61 1 5.808469695410514 20.149835425220957 35.23203565821057 1 0 1
6177 4 1 2.1022413139835496 2.8057521193446617 31.416135594287965 1 0 1
997 13 1 12.547754892174996 11.57680662610387 32.214775491572475 0 0 0
6417 31 1 3.8446907905364984 4.617010357384996 39.702726066312124 0 0 0
7080 55 1 1.6513406721863615 12.651723314337199 30.344680101015314 1 0 0
2795 50 1 17.30224919239832 8.057775221090285 27.31605424148318 0 0 0
2144 53 1 5.689031358087918 23.307719439340396 30.08401809759928 0 0 0
2578 16 1 16.35425691589482 5.246591739889388 31.681402700043595 0 0 0
6185 48 1 7.868594445066049 3.103556282065624 39.769708404055436 0 0 0
5893 44 1 0.9024510709882645 24.934346248377132 41.83074376807263 1 0 0
5975 46 1 4.069094739184113 0.2322783577673634 39.673305055709776 0 0 0
987 6 1 6.1002144620540255 9.997335988909633 30.010025416263865 0 0 0
988 6 1 6.952746792629744 9.168761999745835 30.972036445585807 0 0 0
2579 16 1 16.692707337524713 4.566964445854753 33.006694288675114 0 0 0
5445 57 1 2.9522805746781566 20.23370413327731 43.83277051171163 1 0 0
737 8 1 16.33379187030189 7.485093860518283 37.696763778403394 0 0 0
992 13 1 8.066061868842176 12.006643043239897 27.781313800825004 0 0 0
993 13 1 9.180121799436574 11.167317347994834 28.334808479885325 0 0 0
994 13 1 9.813445295985208 12.033923412549056 29.44407867408099 0 0 0
5971 46 1 0.8744357605541515 0.06675024730897285 35.72312472166331 0 0 0
7092 55 1 11.203039114540125 11.977558904525528 42.53417808359558 0 0 0
1896 11 1 14.347192991598227 20.381514200554985 35.64514087718426 0 0 0
1225 48 1 13.357490787473491 13.613119655071008 39.39456436947566 0 0 0
3550 22 1 13.348774957030702 14.527396052160034 27.509784708562407 0 0 1
2896 18 1 16.420182931144918 9.70325376668271 31.55176384877182 0 0 0
5978 46 1 6.0828180991484455 0.9175792116737348 42.978800021823794 0 0 0
1670 51 1 10.921840497952715 18.65693577758433 36.07420293745882 0 0 0
7974 62 1 7.498197374677171 20.322496068988208 37.25283398075916 1 0 0
443 3 1 7.1813081741278975 3.2475831977981913 25.92206114270708 0 0 1
2271 14 1 12.933430771445416 1.4163807891138873 27.64420782459134 0 0 0
2224 12 1 18.63141160910341 24.276482746812214 40.81653877588066 0 0 0
1213 48 1 3.7022796153357445 13.750412058160087 27.299402238369428 0 0 0
1214 48 1 4.543588601409796 14.660294476359196 28.221388993070914 0 0 0
1215 48 1 5.3642542048602495 13.882115496209131 29.184833512028316 0 0 0
1216 48 1 6.1836808858839865 14.801972063467893 30.166905248141653 0 0 0
1217 48 1 6.9182705333187045 14.010754517406218 31.289753375148678 0 0 0
1218 48 1 7.859148556524664 14.83300376380875 32.16425949510958 0 0 0
1219 48 1 8.516958884175985 13.970429560481909 33.28904894909797 0 0 0
1220 48 1 9.347598781508381 14.847511640785477 34.327624666857105 0 0 0
1221 48 1 9.824896090634903 13.965760943086803 35.429341963146946 0 0 0
1222 48 1 10.955936977251174 14.520117814965664 36.35925168855006 0 0 0
2897 18 1 16.975986578850776 8.875418588300803 32.66636768093564 0 0 0
668 6 1 8.249742464723845 4.965340526631216 32.9133604852275 0 0 0
2217 7 1 9.849783351175132 24.77034176410948 28.584767181049948 0 0 1
7540 57 1 9.087886762573982 16.433458429586125 40.622640017210344 0 0 0
6866 54 1 5.726080437282431 9.434203939483043 41.79702773090542 0 0 0
8287 1 1 9.120431853298767 26.096107721419457 40.48625352218447 0 0 0
983 6 1 2.3615027224317875 10.17486808699765 26.432578489310085 0 0 0
998 13 1 12.858243200456826 12.274671050344633 33.52226155058739 0 0 0
217 2 1 8.044123946979312 0.335111920619807 32.79398458745514 0 0 1
663 5 1 3.8527425654697103 5.826484741534504 28.227922426653386 0 0 1
211 2 1 3.2645720308514945 0.31371501623013026 26.898803291718227 1 0 1
6635 34 1 3.6228648475123855 7.349704896672585 33.85541688622811 0 0 0
7532 57 1 3.2902860946882218 17.137638261317278 32.423107003957554 0 0 0
1437 44 1 14.373277892588408 15.80552618437778 34.74140550872538 0 0 0
3883 28 1 16.643327338115057 20.6106940287943 26.323356917989827 0 0 0
4327 14 1 17.91305950180985 23.14956965979062 33.424363686505785 0 0 0
212 2 1 3.9929799277936207 1.1599333673814207 27.889183230170918 1 0 1
444 60 1 7.974158382840024 2.255112819232883 26.827837626823158 0 0 0
666 6 1 6.643267692352508 5.019666833981076 30.85752100744562 0 0 0
984 6 1 3.2073862886263376 9.387818608185631 27.363453250381777 0 0 0
1894 11 1 12.831695028634948 20.34711374195483 33.65787880035335 0 0 0
1676 51 1 15.47410450393911 18.393235064393696 42.0442210297982 0 0 0
2893 18 1 13.61009283140292 9.325531255249919 28.675543904913873 0 0 0
2264 12 1 11.241839826885561 24.82276353391059 32.25474759087236 0 0 0
7764 62 1 5.113631089922356 19.21905416592027 40.53335795806851 0 0 0
2794 50 1 16.18791582704093 7.499086197388586 26.502578091166082 0 0 0
6421 31 1 6.766799257132252 5.052161643562298 43.89346002233445 0 0 0
1657 44 1 11.314298204435472 15.87710057664533 30.74852155949704 0 0 0
1658 44 1 12.233004574958718 16.7067106672087 31.70702152401966 0 0 0
1659 44 1 13.045249781228003 15.774659041368416 32.559035811745936 0 0 0
1660 44 1 13.737188988172692 16.58481822744044 33.685316882924546 0 0 0
6645 34 1 11.537404519608922 6.956628864829424 43.69863142699825 0 0 0
1662 51 1 4.683263613939154 18.977019791128996 28.120012214168455 0 0 0
1663 51 1 5.68659903680924 18.212032208662034 29.050662268771877 0 0 0
1664 51 1 6.262324000370027 19.083824339075694 30.122621236974876 0 0 0
1665 51 1 7.134009936645952 18.24852776398321 31.049189237550824 0 0 0
1666 51 1 7.7993327066168785 18.904034474637854 32.228049161732685 0 0 0
1228 48 1 15.754582320186193 13.946696939979493 42.44330230042775 0 0 0
7307 36 1 2.150863613322775 13.903486387741157 37.788143833046234 1 0 0
2565 15 1 16.370481677254688 2.6235886014569143 26.370755652727834 0 0 1
775 6 1 15.596943313529918 9.570926498425885 42.0402340492757 0 0 0
7083 55 1 4.173401747365369 11.874600698170733 33.31443161900586 0 0 0
7537 57 1 7.270026414991151 15.945398024642696 37.21445714615046 0 0 0
2899 18 1 18.236841198570207 8.839740148496965 34.781719627028785 0 0 0
6420 31 1 6.455087410811766 5.538592477882676 42.434589104121585 0 0 0
7966 61 1 0.7919129408871958 20.694279746273196 29.46046307522367 1 0 1
3549 22 1 12.141002337887727 13.864199118477805 26.898429064161533 0 0 1
2121 53 1 17.182346582521667 22.71065459082726 43.64049345731634 0 0 0
2274 14 1 15.418677947671235 0.28669966014315135 30.65088844224598 0 0 0
1899 11 1 17.251285662222056 20.6243653818717 38.15125146067112 0 0 0
6176 4 1 1.4811333061172824 3.736223395220502 30.33355204908549 1 0 1
7968 61 1 2.748297581682838 20.653951222993758 31.07306829974408 1 0 1
7306 36 1 1.966784554668343 14.231279615648178 36.35793682711735 1 0 0
3784 23 1 17.68883421644187 17.02376119493 27.19877105219579 0 0 1
6632 34 1 1.5579012743905756 8.092399176664639 30.578947390269917 1 0 0
5976 46 1 4.523147650851169 0.9883157738234319 40.92176553858396 0 0 0
1898 11 1 15.949745533542997 20.325383608828062 37.56211734896336 0 0 0
1888 11 1 8.153773564283568 21.077392973912374 27.536748041935496 0 0 0
1889 11 1 9.512176510101238 21.239707370824025 28.018968663798994 0 0 0
1890 11 1 9.918673134104598 20.352988761789472 29.22622434594701 0 0 0
1891 11 1 11.156689296860968 20.848344923841992 30.046770072135196 0 0 0
5895 44 1 2.350795653858245 24.842544778799805 43.806016055772176 0 0 0
7970 61 1 4.4126870757129755 20.31503273010895 33.08941428598789 1 0 1
664 5 1 4.785013902943047 5.045328051988491 29.079657207136353 0 0 1
669 6 1 8.641608863888859 5.394010819290974 34.330944638740014 0 0 0
667 6 1 7.078113943338792 5.642204512110598 32.161903646081726 0 0 0
8285 1 1 7.66475210405359 25.694664877648645 38.523343636691706 0 0 0
216 2 1 7.006283742119793 1.1830413546593146 31.91936034238251 0 0 1
7313 36 1 6.77201583384065 13.973802147709966 43.9059987276288 0 0 0
229 60 1 14.46536740367021 3.076419041185514 36.336014974777726 0 0 0
776 6 1 15.982227560269648 8.850885005049143 43.40400239322213 0 0 0
3553 22 1 15.522515785497736 13.69865567756958 30.50608028580808 0 0 1
2109 53 1 7.248755568456649 23.167403876621186 32.24544364603602 0 0 0
2110 53 1 8.186978354043502 22.37791693870543 33.128113788121 0 0 0
2111 53 1 8.573175750857347 23.24992689068324 34.315241644294005 0 0 0
2112 53 1 9.54250736126548 22.497302187604323 35.17523660703317 0 0 0
2113 53 1 10.276142266923737 23.25916662939176 36.29906581392731 0 0 0
2114 53 1 11.272494760843918 22.46586709980377 37.194900888834944 0 0 0
2115 53 1 12.170497147815716 23.393392896726006 38.0869679890584 0 0 0
2116 53 1 13.25143347828607 22.598249430121637 38.76536652303759 0 0 0
7763 62 1 4.248878675481273 18.345567192791737 39.62653260371442 0 0 0
734 8 1 13.872198559124877 6.628806291819824 34.79573070031385 0 0 0
7082 55 1 3.4868821389080953 12.793245945636587 32.26207333907173 0 0 0
231 60 1 16.011598770798553 2.9437438838432755 38.306146508449956 0 0 0
6181 48 1 5.206527970554488 2.643934221598829 35.572638480249296 1 0 0
7971 61 1 4.8251012359979475 20.99589371164484 34.36187008410615 1 0 1
7093 55 1 11.626570448866653 11.105471673530163 43.756993860511415 0 0 0
1440 44 1 16.629265446997387 16.58681911911037 37.84224431885904 0 0 0
1003 13 1 17.10401813919803 11.477205215982677 38.09176914026873 0 0 0
7975 62 1 7.799711442134937 21.059182464380683 38.57170830244202 1 0 0
1669 51 1 9.771132460156672 17.967683967751064 35.432399361275266 0 0 0
1677 51 1 15.926097188176842 17.965216345213083 43.41699175019903 0 0 0
210 2 1 2.230247182407176 1.20551415808568 26.325065394130746 1 0 1
3788 25 1 14.83467718537673 18.99041413003613 29.45337383804849 0 0 0
2145 53 1 6.653311565292896 22.439977303663508 31.01158174371998 0 0 0
2220 12 1 15.800609318421461 24.41106732015015 36.53377008505003 0 0 0
2221 12 1 16.26928510109484 24.99615851438734 37.85830194166678 0 0 0
7759 62 1 1.2813404684219067 18.264831081112995 35.53574216948245 0 0 0
2275 14 1 16.310998227629405 1.1129837421434288 31.6172544466289 0 0 0
4418 30 1 18.29470194628682 24.99214012830062 28.18073203081128 0 0 1
4804 46 1 1.8059429777705498 12.14351878270107 42.94935662576263 1 0 0
2216 7 1 8.498977433203805 25.258531667298694 28.053431068140306 0 0 1
219 8 1 9.644707210160705 0.45596130008915875 34.746916833582425 0 0 0
6864 54 1 4.243796667578109 9.24800429312761 39.66705052021079 0 0 0
7766 62 1 6.750951104049895 18.993739991671504 42.540905269590596 0 0 0
2273 14 1 14.749889693327388 1.233810281209162 29.632442549004196 0 0 0
7086 55 1 6.38213214365968 12.569717926910075 36.44930527364455 0 0 0
5444 57 1 2.288736652091896 21.14993879998778 42.8113761064875 1 0 0
6631 34 1 0.5372523772523292 7.412987571835957 29.68624496057687 1 0 0
2265 12 1 12.636049647614323 24.38530257541614 32.700485564396615 0 0 0
2266 12 1 12.784382529981356 24.92778075599087 34.095493071095206 0 0 0
2267 12 1 14.116925767855085 24.525217978592032 34.69557154702661 0 0 0
2268 12 1 14.562793726101603 25.127055455116622 35.99493781053212 0 0 0
8278 1 1 2.533090233935917 25.134351326126527 31.326476593222566 0 0 0
6633 34 1 2.2382237912154235 7.278875404914044 31.663761497670258 0 0 0
1441 44 1 16.99915818259091 15.63939869448868 39.07776654628841 0 0 0
3789 25 1 15.488103405948806 18.15195558599331 30.580647907233043 0 0 0
8289 1 1 10.745344107392214 25.93695775714751 42.4901447319016 0 0 0
985 6 1 4.274704089256875 10.087222193130518 28.224993692905116 0 0 0
1671 51 1 11.230545646138776 17.985538127635273 37.4246928856441 0 0 0
1223 48 1 11.570912134601638 13.69484334676801 37.457258232390956 0 0 0
8211 63 1 6.0386031075227775 23.50973234018534 42.4870483291988 0 0 0
2576 16 1 14.929379089465435 5.268722844099195 29.581544826237046 0 0 0
738 8 1 17.201064160886016 6.729518594001766 38.60504745134362 0 0 0
2222 12 1 17.261799552745487 24.20980986215102 38.63508609275203 0 0 0
3555 22 1 17.094587753474983 13.579929691943361 32.53597622814499 0 0 1
218 8 1 8.373694000812282 1.09224858185358 34.03725908524052 0 0 0
2577 16 1 15.031731162435662 4.846702370855701 31.064243476327313 0 0 0
662 5 1 3.364981773833823 5.067037665717727 26.958993549780555 0 0 1
1667 51 1 8.484071205266714 18.008045743826695 33.18329061015946 0 0 0
8279 1 1 3.41125118368671 25.94138195738874 32.24189258434343 0 0 0
1895 11 1 14.279600235683212 20.636127979007988 34.14708093058809 0 0 0
5972 46 1 1.2937561049713815 0.9448192861074409 36.9034167866262 0 0 0
7081 55 1 2.596291458542941 11.92787155896982 31.328278814665733 0 0 0
7979 62 1 11.182399896508777 21.158048443054728 42.359485343884025 0 0 0
2272 14 1 13.483504568049485 0.6741121091055491 28.826145012923476 0 0 0
4805 46 1 2.648949180021338 11.431290874333252 43.98422184799442 1 0 0
2892 18 1 13.13789781806787 10.057351600156203 27.437333103541352 0 0 0
6413 31 1 0.4975721909305706 4.879093656606324 35.80064188943966 0 0 0
7090 55 1 9.758076481032692 12.098804581630013 40.46971967975065 0 0 0
740 8 1 18.43836134284349 6.904457005362707 40.92417664126742 0 0 0
2118 53 1 14.51736087560794 22.16631131225512 40.90057244364549 0 0 0
214 2 1 5.593482187918839 1.2430338222237396 29.90194488135745 0 0 1
2218 7 1 9.922846637626776 25.071313571076804 30.08620396832714 0 0 1
7091 55 1 10.437216433542439 11.1461510351724 41.47330190573827 0 0 0
1227 48 1 14.71439689141416 13.192717100716136 41.487213131335174 0 0 0
1224 48 1 12.58205720177737 14.479315774167167 38.35884795687329 0 0 0
4324 29 1 15.788088483217448 22.568509579865427 30.375949707841738 0 0 1
5442 57 1 0.5759499146712397 21.07251173803676 41.06887518024921 1 0 0
1674 51 1 13.99239395631082 18.14804200659779 40.11957168692393 0 0 0
1002 13 1 15.971298903808393 12.320380899734387 37.4522375984734 0 0 0
6182 48 1 6.083656051166674 3.6770293520640096 36.35058982250673 1 0 0
1672 51 1 12.450974317755174 18.553718680476987 38.11335058732736 0 0 0
7765 62 1 5.66389173101978 18.39495640933692 41.71450135193275 0 0 0
7539 57 1 8.848003871568913 16.03156034319221 39.18263915560948 0 0 0
455 6 1 16.376243115481653 5.101380912550907 44.13250184772234 0 0 0
2574 16 1 13.32492133544376 5.699079886807768 27.61167371011976 0 0 0
7530 57 1 1.543560716409256 17.23231888457272 30.511491870161233 0 0 0
7973 62 1 6.264480273844834 20.887451685443406 36.49670671635513 1 0 0
4323 29 1 14.864798607396779 23.445722855678465 29.52866401735473 0 0 1
7309 36 1 3.9206599368799586 13.869670080240473 39.67208910867824 0 0 0
6184 48 1 7.630632181735431 3.442981564791402 38.30536021875244 1 0 0
7760 62 1 2.2559903096280305 19.020754831130443 36.450245311182684 0 0 0
8210 63 1 5.555664673359614 22.753670185691675 41.25192253673027 0 0 0
991 13 1 7.4597657598287395 11.371193858500288 26.50975236448766 0 0 0
2277 14 1 17.860524614406515 0.8987062226252576 33.539089231499695 0 0 0
4651 54 1 0.9741021094805494 7.0162423262374505 42.38560955336004 1 0 0
8284 1 1 6.775956744491715 24.852142578105074 37.63717693014243 0 0 0
1892 11 1 11.286181600001704 20.38964293750484 31.49271236974686 0 0 0
1230 48 1 17.567490232969536 14.025381597283113 44.20176043492436 0 0 0
1442 44 1 17.967149329294465 16.4059112065538 39.9753084433476 0 0 0
7531 57 1 2.7561366767901183 16.547656819918174 31.080431727545836 0 0 0
2117 53 1 13.620669356791987 23.194724189956542 40.174653449401276 0 0 0
6183 48 1 6.406361433105904 2.8498842419651496 37.64724790329959 1 0 0
4320 29 1 12.580982906992984 23.084071883237353 26.419016045936438 0 0 1
2119 53 1 15.3815259478516 22.852963978682908 41.96896165644381 0 0 0
1675 51 1 14.153482227890722 17.842394230275346 41.58294754572079 0 0 0
1900 11 1 17.49219680962997 20.238106091414828 39.554839632461146 0 0 0
5134 39 1 2.43860393068464 16.216186786943613 42.465999314018234 1 0 0
2575 16 1 13.659540094764072 4.8033091434498285 28.852991722671657 0 0 0
1653 17 1 8.299719583279725 15.992126551547978 26.82261560497845 0 0 1
6865 54 1 4.788554002971479 10.036313473789706 40.79702354105229 0 0 0
6190 48 1 12.51285208539785 3.067521511273306 44.0897739994805 0 0 0
7529 57 1 0.8865111473532971 16.40609032744221 29.430050419647575 0 0 0
3790 25 1 16.38904065766126 18.984553991516282 31.481543538042203 0 0 0
3792 25 1 18.108258964701857 18.54437130371991 33.34997534424191 0 0 0
1893 11 1 12.597016587184052 20.784957187016058 32.12301798087385 0 0 0
6175 4 1 0.5701602959318248 2.839928636173696 29.51074186772926 1 0 1
7976 62 1 8.780736402556256 20.23106582758277 39.45790863262116 1 0 0
5132 39 1 0.6660571236234024 16.641481097665995 40.59626426488629 1 0 0
4652 54 1 2.330703003442899 7.20255190722404 43.01405323454061 1 0 0
2120 53 1 16.27459346225894 21.899885711759506 42.67123679948358 0 0 0
7312 36 1 6.736171726843823 14.027708255106523 42.395900558366364 0 0 0
736 8 1 15.679615152075327 6.647986638685341 36.602627494253106 0 0 0
6862 54 1 2.559891271835342 9.357882364813076 37.610690624421224 0 0 0
8282 1 1 5.495658006199471 24.872546479373582 35.556205132492444 0 0 0
2581 16 1 18.20730417283625 4.510190644196891 35.11297036677669 0 0 0
8208 63 1 4.284267179563316 22.974840680255703 39.23395911184171 0 0 0
8283 1 1 5.980320389022738 25.644233113690635 36.71318263169815 0 0 0
1668 51 1 9.219110018627553 18.804752593166725 34.3295688167105 0 0 0
8280 1 1 4.102939433365919 25.06196772717934 33.27358645382111 0 0 0
8281 1 1 4.738853548062094 25.764476346518098 34.464958509089854 0 0 0
7085 55 1 5.767986830390712 11.719195665108188 35.343418491586746 0 0 0
8207 63 1 2.9475698292187547 23.371952827084396 38.56598186714833 0 0 0
7978 62 1 10.462846725414755 20.32600482694726 41.383499186930514 0 0 0
233 60 1 17.87364036363115 3.1271576729613475 40.18684523051663 0 0 0
7541 57 1 10.065883795110057 15.58514020551222 41.4265228097892 0 0 0
7969 61 1 3.092421215452009 20.950347639101402 32.54041218411058 1 0 1
5974 46 1 2.8794226544091432 0.8841943991379015 38.93543591384557 0 0 0
1001 13 1 15.637422529872204 11.561148312249244 36.239350162397095 0 0 0
1000 13 1 14.367323227859867 12.031632588355155 35.58250725521363 0 0 0
2223 12 1 17.646073711127784 25.01599170862693 39.89481057727715 0 0 0
999 13 1 14.000840001400727 11.527937976568774 34.221178372538645 0 0 0
6634 34 1 3.2034346025678078 8.088696293178975 32.56594953985424 0 0 0
7310 36 1 5.134588263675242 14.396915705932628 40.43241733721587 0 0 0
1439 44 1 15.94867164528993 15.741853603871991 36.82723324268167 0 0 0
7767 62 1 7.4637786086133575 18.02695597694469 43.484207490190116 0 0 0
5979 46 1 7.134366935949449 0.21230222454286027 43.81528168694456 0 0 0
6868 54 1 7.533223586971833 9.933411972755119 43.518955240374325 0 0 0
1661 51 1 3.8042296123644648 18.161335824502835 27.258990939932357 0 0 0
5894 44 1 1.7452319941068843 25.77921053428787 42.860749258616075 0 0 0
7535 57 1 5.727657448975832 16.116970633815317 35.22392541964812 0 0 0
733 8 1 13.116404134011034 7.473248267876678 33.78982485916305 0 0 0
1226 48 1 14.115446819772778 14.227269950132598 40.55566029027001 0 0 0
6415 31 1 2.2237167511709366 4.5564926506698 37.64393568480962 0 0 0
5977 46 1 5.5702884589347 0.20363929945335954 41.720602937217066 0 0 0
7538 57 1 7.587213463982788 16.562467236433093 38.554339555610866 0 0 0
8288 1 1 10.270760250311465 25.327390155012434 41.155118124800026 0 0 0
995 13 1 10.99585186413774 11.417772545907244 30.231843077853718 0 0 0
6419 31 1 5.213502734972516 4.824961432130995 41.83109548101424 0 0 0
6418 31 1 4.856830951799215 5.360225604506957 40.46820239500279 0 0 0
7542 57 1 10.783576389579643 16.293523401360712 42.57737154196134 0 0 0
2566 15 1 17.027222280643183 3.3835828262602314 27.5571725498116 0 0 1
4321 29 1 13.220700284678616 23.734146170643694 27.579410052976574 0 0 1
213 2 1 4.9693283100642995 0.3828197812490342 28.757155789373687 1 0 1
4505 31 1 0.9025037785619486 2.7965885664752763 41.986978868992516 1 0 0
8277 1 1 1.600917590350932 25.836904976860733 30.37957613748385 0 0 0
7762 62 1 3.7641962219351175 19.09510695339065 38.3460266488388 0 0 0
3332 20 1 18.139871400746685 11.599723947006211 28.260775098165116 0 0 1
7967 61 1 1.5129869088254249 21.372706795629412 30.61118394161594 1 0 1
7088 55 1 8.130579631893562 12.400278605123253 38.40070157749557 0 0 0
6186 48 1 9.203656085397345 3.5310508143694816 40.40531521905873 0 0 0
6187 48 1 9.39369623711201 3.1088796342303384 41.88721437883991 0 0 0
6188 48 1 10.822068510133276 3.315530024084224 42.288951496107636 0 0 0
6189 48 1 11.083597151195184 2.8935084341103043 43.689905511868524 0 0 0
8212 63 1 7.065860449417774 22.779291787653946 43.26648447590494 0 0 0
2270 14 1 11.83716809742664 0.7792227999090674 26.840972656621325 0 0 0
2143 53 1 5.379869387804268 22.863325597875384 28.690906992256004 0 0 0
7980 62 1 11.889878094197421 20.331553453286435 43.392184547090324 0 0 0
7079 55 1 0.7385504292200146 11.787190531858178 29.453473154335253 1 0 0
8209 63 1 4.47454226615162 23.625229198586887 40.59471502586278 0 0 0
7089 55 1 8.995969809042727 11.487238324784931 39.275237015566105 0 0 0
7536 57 1 5.948541095931366 16.423019075476653 36.71383230294947 0 0 0
7087 55 1 7.359804935916486 11.694197716198039 37.27169240266105 0 0 0
228 60 1 13.998308469949018 2.3610751891424657 35.044873362432234 0 0 0
7084 55 1 4.809973819119136 12.58228923210919 34.42578815023872 0 0 0
735 8 1 14.877816413507304 7.446959273219181 35.63087649768029 0 0 0
7534 57 1 4.591021301443111 16.822456938020007 34.49401232719175 0 0 0
1004 13 1 17.766197400607854 12.095968313783132 39.319429187814656 0 0 0
6867 54 1 6.2623787999797464 10.35309788434053 42.86796216844263 0 0 0
3551 22 1 13.695503829115406 13.888019775943992 28.86395131766428 0 0 1
5133 39 1 1.0844873176080334 15.747668024436251 41.825267211832596 1 0 0
6416 31 1 3.384605400046739 5.250341892663766 38.42261116582897 0 0 0
3783 23 1 16.95080537792319 16.158990260511757 26.178875819552875 0 0 1
1655 17 1 9.749886068318604 15.792607168056412 28.811410418438513 0 0 1
2276 14 1 16.970416013183485 0.15914199583341304 32.549542000709074 0 0 0
6863 54 1 3.561816527805552 10.075414282801141 38.56284509468113 0 0 0
1229 48 1 16.528298518078888 13.175048140938234 43.47165972897835 0 0 0
996 13 1 11.312284914555324 12.184282944161561 31.508207131166486 0 0 0
8205 63 1 1.349463358879186 23.14021670157319 36.68042851741643 0 0 0
1654 17 1 9.061688034105407 16.705349894327007 27.880836636945972 0 0 1
8206 63 1 2.74788991007876 22.691933802828736 37.21977921635045 0 0 0
4416 30 1 16.875572963244107 25.222805809598842 26.04103220429955 0 0 1
5973 46 1 2.2913207332122116 0.14619645123640734 37.747162402103626 0 0 0
7977 62 1 9.718182838899724 21.102476745301214 40.357906054766396 0 0 0
6636 34 1 4.646101945403945 8.132680654755386 34.72240716069785 0 0 0
6637 34 1 5.520657205314441 7.195792692764899 35.537174477832316 0 0 0
6638 34 1 6.283389199376135 7.953283567276596 36.64218008000873 0 0 0
6639 34 1 6.8971225451689975 7.027194863234984 37.713490072197274 0 0 0
6640 34 1 7.775124208455504 7.85942963827438 38.68774694020845 0 0 0