LAMMPS data file via write_data, version 23 Jun 2022, timestep = 1000000

9706 atoms
2 atom types
9690 bonds
3 bond types
9674 angles
3 angle types
9658 dihedrals
3 dihedral types

0 36.89775039 xlo xhi
0 26.67072 ylo yhi
0 236.7516044 zlo zhi
0 7.448720975 0 xy xz yz

Masses

1 14
2 15

Pair Coeffs # lj/cut/omp

1 0.0914 3.95
2 0.1947 3.75

Bond Coeffs # harmonic/omp

1 449.5 1.53
2 449.5 1.53
3 449.5 1.53

Angle Coeffs # harmonic/omp

1 62.0967 114
2 62.0967 114
3 62.0967 114

Dihedral Coeffs # opls/omp

1 1.411 -0.271 3.145 0
2 1.411 -0.271 3.145 0
3 1.411 -0.271 3.145 0

Atoms # molecular

1 2 1 6.508851312901301 0.5936804102998634 8.357430768679091 0 0 0
2 2 1 7.544560447600291 26.640094119804075 9.230665172569672 0 -1 0
3 2 1 7.982015213892743 0.7316520910319703 10.462201534069546 0 0 0
4 2 1 8.559882337448647 26.649171162746526 11.642603629618577 0 -1 0
5 2 1 9.05880841350861 0.9313153267748399 12.709959368023938 0 0 0
6 2 1 9.607690382400513 0.19699106551826864 13.893100682439878 0 0 0
7 2 1 10.275495449899111 1.0467990575793225 14.914770069899479 0 0 0
8 2 1 11.139333620117794 0.1893910229495178 15.827046357910357 0 0 0
9 2 1 11.721249043365406 1.0528102048831998 16.957488926847763 0 0 0
10 2 1 12.315421769459107 0.2970319646762277 18.152275095580475 0 0 0
11 2 1 12.958787987498333 1.1755296447506316 19.217216362361334 0 0 0
12 2 1 13.53971291565969 0.43029777549138715 20.409050993457463 0 0 0
13 2 1 14.199430893388863 1.1646646118866648 21.528108686079236 0 0 0
9045 17 1 4.462248012972347 20.6296517044582 10.516277237986353 1 0 0
1204 7 1 7.603190032262866 12.31496422451627 0.05909655073679869 0 0 1
3786 39 1 13.808637776576441 14.13810470636222 2.7146909035225346 0 0 0
457 52 1 5.263321894408889 4.939890302269918 5.46382820679518 0 0 0
2280 19 1 17.491380041786304 24.70037172097208 19.71273894070588 0 0 0
2281 19 1 18.861397351461605 24.560843730480514 20.376776507191565 0 0 0
221 2 1 4.31021638038506 0.979933858837052 3.7065616594528814 0 0 0
222 2 1 5.2414972118672605 0.21614208985983452 4.671700541232805 0 0 0
223 2 1 5.265385057089324 0.7730482622582714 6.105008315691445 0 0 0
224 2 1 6.413815130194327 0.1314036836478718 6.8979299482477066 0 0 0
304 53 1 8.784479203253614 3.2286974735090013 2.2483999091151223 0 0 0
305 53 1 8.637018792341559 3.03333029663767 3.7608857488010035 0 0 0
306 53 1 10.03838512092 3.0538401649530194 4.428190956448115 0 0 0
307 53 1 9.926764414110883 2.804003776766109 5.963547174754521 0 0 0
308 53 1 11.165261264440637 3.1190628335673214 6.763911613284237 0 0 0
309 53 1 11.298646588245568 2.6328108894914224 8.259540622859005 0 0 0
310 53 1 12.505852267257074 3.058779873498925 9.13339346127399 0 0 0
311 53 1 12.524988258752439 2.54856950630215 10.57126910992068 0 0 0
312 53 1 13.747135173594748 3.1091880181273557 11.306101729423396 0 0 0
313 53 1 13.918119808881855 2.592848265134647 12.731814131207715 0 0 0
314 53 1 15.124607704956754 3.211306774771396 13.51487302533469 0 0 0
8218 55 1 2.2303215810308226 11.920191775810551 6.461177741077806 0 0 0
9050 17 1 6.394450642771034 20.25059872530022 16.730971546566423 0 0 0
9496 63 1 3.3340647554423937 24.328676969953968 10.06253036828501 0 0 0
8619 12 1 10.198911247059995 15.403023499878682 21.976264720122874 0 0 0
1205 7 1 7.737883674958375 11.953408733124792 1.5226506451395148 0 0 1
1433 9 1 4.151433455573361 13.728054136909275 3.187782236093385 0 0 0
1735 13 1 3.0573831092236343 18.532742962897228 1.2645618259824623 0 0 0
383 52 1 8.837966510219305 5.566270336402193 10.816038946264513 0 0 0
384 52 1 8.562327403075386 5.418750363153954 12.295532217774074 0 0 0
385 52 1 9.8230427038322 5.380243578113582 13.118416870984518 0 0 0
386 52 1 9.64920486621273 5.075015959317832 14.626567403962355 0 0 0
387 52 1 11.015024402386636 5.139825832871685 15.36490871234106 0 0 0
388 52 1 10.780290229597739 5.155801882044313 16.874978581506085 0 0 0
389 52 1 12.199494975222658 5.034366727426287 17.532116364340055 0 0 0
390 52 1 12.119346439700472 5.0098702188544495 19.06254641753611 0 0 0
391 52 1 13.363377549818434 4.629586326967306 19.849373987648082 0 0 0
392 52 1 13.21916659681509 4.822049259895355 21.339604347909255 0 0 0
393 52 1 14.598924652489389 4.570531009050003 21.990744877039706 0 0 0
9492 63 1 0.5315993846529412 24.795804607363483 5.720343560841741 1 0 0
7683 6 1 0.825640334447787 4.35584210433431 14.026346645555046 0 0 0
7078 48 1 1.1075117861774493 24.6417666780175 22.968663669938376 0 0 0
1674 13 1 13.879971680008717 17.58591750090108 21.486718740298073 0 0 0
9502 63 1 6.6822165203861585 24.28637763686531 16.971851109025273 0 0 0
9056 17 1 10.330072207889518 19.640339510655984 23.364949717389052 0 0 0
5235 36 1 1.0982741051275091 2.0025530901886994 21.448097728479677 0 0 0
2054 17 1 14.060851036395755 23.21107145394122 20.041161713783374 0 0 0
458 52 1 6.4917888520232605 5.351964582707958 6.3247574591705025 0 0 0
459 52 1 6.45264680104555 4.863505383200413 7.736461582072887 0 0 0
460 52 1 7.6626792857942725 5.3285298563525805 8.517168204862415 0 0 0
461 52 1 7.549183616292867 5.206266831718047 10.039022773843012 0 0 0
541 55 1 8.523879448295956 7.455632266590806 3.812931307812294 0 0 0
542 55 1 9.711737360857269 7.960959588063693 4.712309826631088 0 0 0
543 55 1 9.815387150479305 7.192633011939539 5.980889375653686 0 0 0
544 55 1 10.904542991313654 7.712704319296192 6.872553795760081 0 0 0
545 55 1 11.392885417004983 6.779672602239282 8.011556009399685 0 0 0
546 55 1 12.091577578076254 7.522441910359802 9.120508057589815 0 0 0
547 55 1 12.825476085211324 6.81347217346386 10.230463540125083 0 0 0
548 55 1 13.574066968916526 7.684034789838684 11.155394465977782 0 0 0
549 55 1 13.645083298671073 7.07862588571645 12.45248861812473 0 0 0
550 55 1 14.462781742723498 7.91034681879619 13.381694442275782 0 0 0
551 55 1 14.522003627002045 7.369980859654485 14.825425659259318 0 0 0
4541 31 1 16.11009545891316 23.309051020298114 7.075969085424918 0 0 0
8061 54 1 5.380758460580633 9.242664962807323 21.69014358991265 0 0 0
3867 5 1 12.51697417013978 14.197879382452234 1.8837366826540405 0 0 1
9286 61 1 6.040201470560914 21.871799484877528 22.8140121812718 0 0 0
988 6 1 2.715000377079972 9.863551968574498 0.9257387114253512 0 0 0
9279 61 1 1.862448047344136 22.610559638354136 15.05652353626566 0 0 0
764 55 1 8.640390335448942 7.957042004990743 2.390154809812014 0 0 0
2260 17 1 3.081937877351317 23.569260997040498 0.030198473032367442 0 0 0
766 6 1 3.8828445462035135 9.952381464979151 3.3390993612417526 0 0 0
767 6 1 5.2899638140785346 9.793612221022356 3.98212052056912 0 0 0
768 6 1 5.259605906600491 9.826714836574105 5.441025560899646 0 0 0
769 6 1 6.61382664081746 9.987663717972863 6.154159931556617 0 0 0
770 6 1 6.470052160885429 9.909989590235584 7.694619369708123 0 0 0
771 6 1 7.858234430677621 9.822065548313919 8.351976279085083 0 0 0
772 6 1 7.892552498347205 9.463394713246688 9.848808401987865 0 0 0
773 6 1 9.120430204503934 9.96396077595948 10.666297998425097 0 0 0
774 6 1 9.035406619598833 9.495083896478329 12.121665331104358 0 0 0
775 6 1 10.269396286709908 9.93879251199355 12.877439831936346 0 0 0
776 6 1 10.197662735007064 9.46886058305341 14.314209614872839 0 0 0
777 6 1 11.491512753181006 9.725460622099487 15.095050664643175 0 0 0
9040 14 1 0.6722221419453354 20.586309211557527 5.305186448157061 1 0 1
3716 39 1 18.407846137333266 14.08978565060354 13.119670350074855 0 0 0
8836 58 1 5.338430614958167 17.89762679412886 21.78599460549254 0 0 0
8450 35 1 4.267807735059043 13.375856473284644 19.767372016531326 0 0 0
4312 28 1 13.74841958982235 18.654559715948924 2.5612495413860805 0 0 1
2819 37 1 18.68251191365655 5.152635256912039 11.408483151389884 0 0 0
3041 25 1 16.876324043157855 7.517374416993824 2.3959597229818557 0 0 0
3712 39 1 16.098351340846705 14.226576577969658 8.518448208498054 0 0 0
8216 55 1 0.9001114787501615 12.133058125581897 4.18815055241979 0 0 0
1431 9 1 3.034695678734368 13.74539001001009 0.8357062257203913 0 0 0
989 8 1 12.66223032822843 11.544971330026868 10.303670858466864 0 0 0
990 8 1 13.865734388861902 12.168885620700646 11.012601788820128 0 0 0
991 8 1 13.733286468124573 11.811762335990624 12.494461870600905 0 0 0
992 8 1 14.899371327170103 12.17540495296644 13.358404754101416 0 0 0
993 8 1 15.03361420759945 11.436809638797177 14.670591716891067 0 0 0
994 8 1 16.100026022348093 11.995336298570999 15.638292410253246 0 0 0
995 8 1 15.991246013056106 11.511754984692342 17.06363583945185 0 0 0
996 8 1 17.140405422547136 12.012037635345196 17.93107489282495 0 0 0
997 8 1 17.14626628904858 11.246592037457534 19.264316437075507 0 0 0
7237 58 1 2.0690897450228647 26.474882838562024 16.687526373278583 0 -1 0
8053 54 1 0.6127550972586961 9.97306636644109 12.819785141530986 1 0 0
9049 17 1 6.629473916175843 20.362860691475323 15.236149364479495 0 0 0
9280 61 1 1.7855937781586584 22.055603483844198 16.44353261319032 0 0 0
3040 25 1 16.93767997602136 7.923837872222232 0.8922521434109589 0 0 0
3714 39 1 17.334687540429133 14.06143181715213 10.797412805404267 0 0 0
3484 25 1 11.82521449801369 9.743684820035222 0.24163136638603622 0 0 0
1211 8 1 11.516331582120175 11.374986524796801 7.976036796648622 0 0 0
1212 8 1 12.680324541802744 11.987338892150873 8.851578663830555 0 0 0
1213 9 1 6.361228094684766 14.3266873955085 7.913668032508325 0 0 0
1214 9 1 7.667367847996826 14.220927262684697 8.738977057433745 0 0 0
1215 9 1 7.564380481395129 13.742258407804878 10.241709290390776 0 0 0
1216 9 1 8.862014186162781 13.897173177000276 10.974268674090391 0 0 0
1217 9 1 8.775981255782401 13.676902448216797 12.47980249831672 0 0 0
1218 9 1 10.013453844259892 14.302731259237584 13.241138877476091 0 0 0
1219 9 1 10.157487768834566 13.876984096190533 14.658721139140736 0 0 0
1220 9 1 11.389055229881974 14.21348337854761 15.492005951189482 0 0 0
1221 9 1 11.268181981885819 13.822829647883069 17.01420248092029 0 0 0
1222 9 1 12.549578903066873 13.776560424837562 17.781529823472365 0 0 0
1223 9 1 12.462731877599822 13.34380100898587 19.217173289030477 0 0 0
1224 9 1 13.808992982727284 13.370382971271825 19.964792988917655 0 0 0
1656 12 1 8.904965449011534 16.394713536130638 3.9659987368334857 0 0 0
763 55 1 7.608626109897924 7.446723360355402 1.3909534165551496 0 0 0
382 53 1 7.408692829658804 3.0479227160414317 1.6812006322253716 0 0 0
3033 32 1 12.139058494985747 5.051733539023053 0.5110760800737625 0 0 1
779 6 1 12.404904660721508 9.61947850846092 17.50346889474955 0 0 0
765 6 1 4.010580873868708 9.711719654234876 1.7944563972423984 0 0 0
8062 54 1 5.261379189840431 8.713343741349135 23.090957716786153 0 0 0
455 52 1 3.989314942240523 5.165012283483232 3.3050234499044304 0 0 0
1434 9 1 5.391441725378872 13.914605588329511 4.102821592227659 0 0 0
1435 9 1 5.070909799556102 14.045975381318966 5.5933538088671675 0 0 0
1436 9 1 6.3286822948839605 14.426603403644087 6.373678689955917 0 0 0
1437 12 1 12.515647967888544 16.244347662408543 9.123328815207158 0 0 0
1438 12 1 12.394299236959734 16.146987549218565 10.64193701316033 0 0 0
1439 12 1 13.530467643479223 15.670807238809518 11.541730693755817 0 0 0
1440 12 1 13.349581440932536 16.020909642097244 13.007091097878348 0 0 0
1441 12 1 14.664287176874632 15.975794816900034 13.760040189924275 0 0 0
1442 12 1 14.535960927007038 16.27232296715993 15.281152914858387 0 0 0
1443 12 1 15.896804885712415 16.190148598235922 16.063705962289333 0 0 0
1444 12 1 15.857122715350267 16.362168952303605 17.584062826591573 0 0 0
1445 12 1 17.161981048558005 16.080962991975294 18.287781581795596 0 0 0
1446 12 1 17.17385840371856 16.09177129438504 19.800826696882936 0 0 0
219 2 1 3.049997266448052 1.1914612228128225 1.5132435016769215 0 0 0
1432 9 1 4.323093446250675 13.891794057232051 1.6702179279144096 0 0 0
317 53 1 16.636892782404963 2.5643713761173075 17.15299548897572 0 0 0
316 53 1 16.262957716434276 3.266165740722448 15.817402293054498 0 0 0
1657 12 1 10.206815942405104 16.399078969500323 4.6469610106083215 0 0 0
1658 12 1 9.944882720617537 16.202789500411637 6.177061836704275 0 0 0
1659 12 1 11.226639265930325 16.360607189662197 7.005769518886698 0 0 0
1660 12 1 11.16646345725842 16.31080599421693 8.476745054038975 0 0 0
1661 13 1 6.700923588167474 18.975756765287205 6.63794859916981 0 0 0
1662 13 1 6.899982001824261 18.062284463115393 7.870785431525181 0 0 0
1663 13 1 8.016914541992525 18.590414503262892 8.768509199445825 0 0 0
1664 13 1 8.10998209125053 17.98379692962498 10.154583494798015 0 0 0
1665 13 1 9.10144969768304 18.75091541412364 10.950935506896947 0 0 0
1666 13 1 9.186397913189372 18.295808496785895 12.439112439315124 0 0 0
1667 13 1 10.353783692208332 18.91315248973688 13.250201505994871 0 0 0
1668 13 1 10.313095036575955 18.683128869514746 14.743585868393454 0 0 0
1669 13 1 11.619373754351633 18.84659876514512 15.517094842325813 0 0 0
1670 13 1 11.543029692790027 18.121603095525753 16.893429757660382 0 0 0
1671 13 1 12.63473115106826 18.42961234247058 17.8474866267902 0 0 0
1672 13 1 12.640519644814136 17.72363516590163 19.226248301233063 0 0 0
4544 31 1 17.548003574878553 22.60024102387126 10.611128611336168 0 0 0
539 4 1 2.544402392733755 5.358203302533198 1.2097991265417003 0 0 1
1654 11 1 7.63173153953034 16.50542859341907 1.7051002142338305 0 0 1
9048 17 1 5.358469213597179 20.384348080066317 14.366195726262049 0 0 0
2499 18 1 17.207481487713032 1.182302259514147 9.75542831566012 0 0 0
8603 12 1 0.8855347805265019 16.618393745068072 4.25872251904474 0 0 0
7451 61 1 0.5820907691310335 3.519214338713331 4.092459830096943 1 0 0
1736 13 1 4.3171476880765365 19.08500902821059 1.9917448804772122 0 0 0
1737 13 1 4.4435115947710315 18.556937603218433 3.4158260133668614 0 0 0
1738 13 1 5.623925759759857 18.986159517143623 4.249110877241979 0 0 0
1739 13 1 5.7530556300602855 18.375225776992508 5.669604515623496 0 0 0
1819 16 1 10.286024092477918 20.9449809397412 4.125158942914366 0 0 0
1820 16 1 10.298982890376662 21.045666586132093 5.645939638764317 0 0 0
1821 16 1 11.602562410747282 21.235724718825303 6.438848713812632 0 0 0
1822 16 1 11.375989598821448 21.19018406124518 7.986939714546068 0 0 0
1823 16 1 12.626907005615482 21.0506040172101 8.887206967203603 0 0 0
1824 16 1 12.397045870575685 21.167310777903875 10.39204081280061 0 0 0
1825 16 1 13.588861120234027 20.687644570732296 11.194302904997832 0 0 0
1826 16 1 13.539737785959199 20.765517120709973 12.671460723947932 0 0 0
1827 16 1 14.854931839754444 20.47814526644182 13.404847245163175 0 0 0
1828 16 1 14.727143807779415 20.564692339040363 14.928392622432725 0 0 0
1829 16 1 16.04219795659187 20.510934857717576 15.703718696485367 0 0 0
555 55 1 16.964252172744104 6.760939730914363 19.337234758073592 0 0 0
9501 63 1 6.695608902946254 24.849164589818027 15.557125640689238 0 0 0
8451 35 1 4.187278824828793 13.053324463807455 21.25562895477459 0 0 0
8232 55 1 10.081530043943815 11.576252334365245 22.499872992979935 0 0 0
2040 16 1 7.760370856302894 20.867099898234965 1.2088613788176574 0 0 0
2041 16 1 9.015435766909047 21.07530924943405 1.9493611078772108 0 0 0
2042 16 1 8.94637199272199 20.657247383268224 3.4140765252761494 0 0 0
2043 17 1 6.344859050847427 22.78014450499087 8.261810010637147 0 0 0
2044 17 1 7.598042925614508 22.516639797075364 9.111248013268233 0 0 0
2045 17 1 7.472176086201609 22.571024988008688 10.650503980636017 0 0 0
2046 17 1 8.766319537406694 22.44656107780881 11.392000744840892 0 0 0
2047 17 1 8.685794513363811 22.38881613219448 12.880582240229755 0 0 0
2048 17 1 10.01157918376779 22.822030867035622 13.476201952370527 0 0 0
2049 17 1 9.967866586083703 22.64372029348758 14.981087862844637 0 0 0
2050 17 1 11.328489481665946 23.127038331040232 15.487994802733144 0 0 0
2051 17 1 11.635774676841985 22.737371650135984 16.932086123602225 0 0 0
2052 17 1 12.794417863949331 23.376967048479113 17.62507553883665 0 0 0
2056 17 1 15.347135698089861 22.25044985399231 22.08509417925022 0 0 0
4088 27 1 17.37716995357831 16.101407602184544 0.8229486829648751 0 0 1
3711 39 1 16.293439291872946 14.318165842876747 7.014193712478019 0 0 0
9285 61 1 5.812284124589505 22.559788964788154 21.50168558744565 0 0 0
7691 6 1 5.570678343275203 4.313291152942634 22.973533369598606 0 0 0
7989 33 1 9.872772262011287 7.268118508564724 23.18402806193424 0 0 0
783 6 1 14.572430499812912 9.476119684774243 22.069166740702865 0 0 0
2261 17 1 3.02077089502641 23.13127100496742 1.4858286695401246 0 0 0
2262 17 1 4.391177428339705 22.91735603185213 2.121990975401125 0 0 0
2263 17 1 4.186167769894808 22.75222380361887 3.6138140386635933 0 0 0
2264 17 1 5.491776937195297 22.86880917519139 4.435015673338883 0 0 0
2265 17 1 5.345607309312515 23.092579060074318 5.91403975472867 0 0 0
2266 17 1 6.616146970298621 22.849043086420586 6.749255674851761 0 0 0
2267 19 1 10.471094081143205 25.39078309222814 4.479385656751816 0 0 0
2268 19 1 10.376130067159776 25.164402676871195 6.0005379369167136 0 0 0
2269 19 1 11.723711800545594 25.155323816602476 6.734373282696032 0 0 0
2270 19 1 11.564192518479441 25.086800830985386 8.275560957030761 0 0 0
2271 19 1 12.844227277717764 25.07935721514862 9.082571963250752 0 0 0
2272 19 1 12.583271741508744 25.10362884791032 10.623801400325434 0 0 0
2273 19 1 13.884008649094245 24.82251014790976 11.47085117131305 0 0 0
2274 19 1 13.714405633582116 25.021139396587955 12.969019214856159 0 0 0
2275 19 1 15.065379984601352 24.90477797237524 13.65467054856468 0 0 0
2276 19 1 15.118104390470597 25.15397224153773 15.156897178104598 0 0 0
2277 19 1 16.366338663337604 24.674111398188252 15.920326968757788 0 0 0
3035 37 1 13.329051189946366 5.137019031340207 2.766337322812339 0 0 0
8449 35 1 2.957836528870844 13.06245976579614 19.082023524169504 0 0 0
3866 5 1 12.643662618555256 14.166372065933997 0.3424233088856867 0 0 1
2055 17 1 14.063236079777248 22.296879009703197 21.248240609533084 0 0 0
2488 19 1 8.006844575200068 25.249092888505235 1.5086940307326002 0 0 0
2489 19 1 9.346440154461277 25.299236795250536 2.2630020858507742 0 0 0
2490 19 1 9.131540380553295 25.287125624111034 3.7755944538825235 0 0 0
7973 33 1 0.8844972342399328 7.207543454389367 5.21017311505787 0 0 0
2492 18 1 12.547328033086288 1.1897464918151637 2.3264726670898126 0 0 0
2493 18 1 13.827860926675381 0.7301462703552166 2.984521398993198 0 0 0
2494 18 1 13.734862887986667 0.6295399347900027 4.4996266169659 0 0 0
2495 18 1 15.141204511025856 0.6099433248917494 5.085405470363042 0 0 0
2496 18 1 15.000293496736573 0.4930329074769048 6.618597357943272 0 0 0
999 8 1 18.323730784368678 11.23428615186226 21.534116990446073 0 0 0
1209 8 1 10.394408614685037 11.784426466199395 5.770045634110167 0 0 0
1832 16 1 17.318669055714754 20.337183193232498 19.440331601364317 0 0 0
1447 12 1 18.520739368980916 15.757766820439095 20.504094613110066 0 0 0
4311 28 1 12.43682378042225 18.548874648978735 1.8082555122384396 0 0 1
318 53 1 17.765672063722498 3.045105934332434 18.081703915698768 0 0 0
3708 22 1 17.4887404829142 12.138609253341546 2.1686879421329466 0 0 1
2497 18 1 16.073891517118458 1.058748484320995 7.528517159171295 0 0 0
2814 37 1 14.701365465365223 5.410557429274026 6.439625751215116 0 0 0
2815 37 1 16.098624560112814 5.470237390035664 7.0730299242260894 0 0 0
2816 37 1 16.043627660334632 5.2226973576827715 8.541404027346195 0 0 0
2817 37 1 17.43228535653226 5.318804091438654 9.223643767712232 0 0 0
3486 26 1 18.557302624620643 12.291586384035789 4.426265975103109 0 0 0
8616 12 1 7.983802974561051 15.598019260521646 18.80610145368096 0 0 0
9277 61 1 0.6217147506054115 22.794960618194335 12.831120394078606 0 0 0
7242 58 1 5.7143616921754115 0.010772101554017349 22.050457674002217 0 0 0
3036 37 1 13.24714319113978 5.379602570259588 4.2653076039667095 0 0 0
3037 37 1 14.587248205383109 5.40353633536857 4.905760324812837 0 0 0
6696 48 1 1.072822253679917 19.91461281596338 21.43058724897281 0 0 0
1225 9 1 13.636748705576869 13.578331277053728 21.47463169623856 0 0 0
2279 19 1 17.485657072363804 24.340292657363168 18.203805133654143 0 0 0
2053 17 1 13.054895719936377 22.655352349796107 18.971207734669427 0 0 0
9043 17 1 3.044650255161023 20.53722009189476 8.395560173523606 1 0 0
3263 25 1 13.71140308701181 10.024297711146279 3.6327452812000085 0 0 0
3264 25 1 14.78084652738668 9.350455469496504 4.519594360369707 0 0 0
3265 25 1 14.659436961246312 9.54034874022939 6.0333474611603455 0 0 0
3266 25 1 15.970565141605391 9.460961938763257 6.7833184194064575 0 0 0
3267 25 1 15.790533035067515 9.702532026807265 8.221425285142718 0 0 0
3268 25 1 17.042964293279546 9.250144282892949 9.004567918817393 0 0 0
9051 17 1 7.664929625084959 20.353201012012526 17.606147982431285 0 0 0
998 8 1 18.45025610540706 11.60132130004904 20.046842123621925 0 0 0
2500 18 1 17.04070192962688 0.9496505166765616 11.290742917416779 0 0 0
1655 11 1 8.970741720829983 16.472998904291458 2.4523972367785416 0 0 1
8832 58 1 3.085783409689893 18.092771038973247 17.31768533085082 0 0 0
1834 16 1 18.699526254905688 20.368485169319282 21.549618598638308 0 0 0
1830 16 1 15.902515435634882 20.344616370034867 17.1995411582304 0 0 0
3710 39 1 14.971561438045107 14.272464410919065 6.25298343900563 0 0 0
557 55 1 18.287970024019177 6.41046995150352 21.56757263058545 0 0 0
4089 27 1 17.417370371355222 16.626293761189036 2.257940952883465 0 0 1
4310 28 1 12.703240738187969 18.863131367570478 0.3560541934410959 0 0 1
9039 14 1 0.8265748681977036 21.05010164794428 3.795426089116172 1 0 1
456 52 1 5.301873332758971 5.42337501070775 4.030694448582819 0 0 0
780 6 1 12.13776035733336 9.262081329154 18.965543215225935 0 0 0
8230 55 1 9.149586821022917 11.567110936788428 20.0681490006865 0 0 0
3787 39 1 13.684734877309952 14.457792279177585 4.1528380371318026 0 0 0
3788 39 1 15.084405264195695 14.500549094639418 4.78147273770361 0 0 0
4538 42 1 17.457531497011058 20.911090108029498 1.848359896032418 0 0 1
9284 61 1 4.797311047910349 21.810609283218025 20.623243339639345 0 0 0
781 6 1 13.422840215822935 9.439934188111831 19.802786198245045 0 0 0
4761 31 1 13.928029790513513 22.938200781220015 2.540724207656075 0 0 0
4092 29 1 16.132880654542646 18.528175304411896 6.994725673688461 0 0 0
4093 29 1 16.011908105449933 18.26676953295999 8.507670833714984 0 0 0
4546 31 1 18.631330068247095 22.764552400812047 12.814302351963471 0 0 0
4095 29 1 17.045129458732877 18.329723748952816 10.85451325715763 0 0 0
1673 13 1 13.762419985442632 18.32282646481063 20.103845864213017 0 0 0
7467 61 1 10.031394792671609 1.9931606881227333 21.77041050016366 0 0 0
7974 33 1 1.567951155627994 8.153871652009201 6.223904574340042 0 0 0
4313 29 1 13.602662754627897 18.64426249636056 4.055083265807559 0 0 0
4314 29 1 14.920897221512652 18.684228394532564 4.8243077462798105 0 0 0
4315 29 1 14.842067103291832 18.256805359453082 6.237383869464355 0 0 0
8615 12 1 8.118425425546395 16.02697483483838 17.365185981099877 0 0 0
6314 64 1 1.3048476403653249 15.342334745543432 22.97303599628869 1 0 0
2278 19 1 16.341950654361565 25.002028335716997 17.401622277825613 0 0 0
7453 61 1 1.9569553998197515 3.2963623995499547 6.2664215992461285 0 0 0
4540 31 1 15.065176055208802 22.56743048557997 6.202174411305038 0 0 0
7236 58 1 2.102355033243495 0.34356155025831203 15.266568966044016 0 0 0
321 53 1 18.55533637364016 1.9853587502753338 21.774988165167645 0 0 0
8058 54 1 3.027522955950841 8.884290794265825 18.635881305124915 0 0 0
2656 20 1 18.49624876955884 2.627293547859882 3.0880053806678296 0 0 0
8445 35 1 0.5436477685145044 13.715425556892168 14.621330537824726 0 0 0
3707 22 1 17.33650705003065 12.60904034539667 0.7679234473562677 0 0 1
8610 12 1 4.080230285450111 16.340502567095736 12.438904635349132 0 0 0
4762 31 1 13.750203036211804 22.786934780822847 4.051524996215937 0 0 0
4763 31 1 15.153725691212147 22.856641306987584 4.692095458232788 0 0 0
8830 58 1 1.9043758051762967 18.436734202967195 15.190662647184263 0 0 0
8612 12 1 5.5500100786988575 16.505660493082228 14.49575919251975 0 0 0
1208 8 1 10.374634551881018 12.185113438349486 4.322522031972161 0 0 0
556 55 1 18.270024054113605 7.057133384348316 20.191359928678185 0 0 0
8831 58 1 1.721379606805541 18.094362606244534 16.614434774832752 0 0 0
7685 6 1 1.8449146345392966 4.310534061773761 16.344832393815523 0 0 0
8057 54 1 2.9284472780340884 9.497761477673851 17.231570678592732 0 0 0
1226 9 1 14.98152179421589 13.310831557365052 22.284890184532905 0 0 0
7988 33 1 9.959115681761372 7.399640892840059 21.680199124050617 0 0 0
8055 54 1 1.4701629538787737 9.843768475189856 15.158054509220017 1 0 0
553 55 1 15.818747551519529 7.079445023835993 17.02978483969179 0 0 0
8837 58 1 5.301585074514343 17.454706762576045 23.25947093596144 0 0 0
3485 25 1 12.363632737187828 10.230834393238752 1.5841048216411644 0 0 0
7077 48 1 0.7770540543159858 24.190505998737375 21.612450594810053 0 0 0
2812 49 1 15.912252817595553 2.971943032224836 0.2461260157964115 0 0 1
7976 33 1 2.8430849844920494 8.132682660991362 8.48593564499611 0 0 0
2282 19 1 18.70220891222313 24.74720041449172 21.87874669049107 0 0 0
1210 8 1 11.68279004850589 12.050030163203411 6.578344767157056 0 0 0
8609 12 1 4.206459256125948 16.05927237044402 10.952290245647236 0 0 0
9055 17 1 10.340312802858522 20.007085698282737 21.883629073907567 0 0 0
9054 17 1 8.970485957641355 19.72106000668658 21.135604277100853 0 0 0
4542 31 1 16.159687059689983 22.89618148204575 8.524083557750709 0 0 0
1675 13 1 14.913992419641556 18.11116542868996 22.51192171880444 0 0 0
8604 12 1 0.8746234723531721 16.36764334974794 5.749557569655276 0 0 0
394 52 1 14.482403945167738 4.792544668502703 23.504669093251078 0 0 0
9278 61 1 0.7273573816308474 22.059546525965143 14.134454676057734 0 0 0
1206 7 1 8.900202204705927 12.521462544009315 2.2944963615515155 0 0 1
782 6 1 13.257985938739877 9.244542809388024 21.26523029930252 0 0 0
9506 63 1 9.61933439243227 23.763574372807888 21.084955082478864 0 0 0
7987 33 1 8.571987318017321 7.338726099154104 21.098345018858062 0 0 0
1207 7 1 8.99128745241368 12.006690046842824 3.7239422216609697 0 0 1
8446 35 1 1.795071066524895 14.017808150454465 15.486250781928668 0 0 0
9503 63 1 7.798588560549304 24.893631572454932 17.833451302049156 0 0 0
9283 61 1 4.276849497393617 22.715222779236093 19.534357433967035 0 0 0
319 53 1 17.701498086099917 2.2728082051861977 19.376429870767762 0 0 0
9500 63 1 5.562297186363111 24.42434963931626 14.622999611330545 0 0 0
9044 17 1 3.055444235815235 20.558795763777223 9.909322930973895 1 0 0
1831 16 1 17.236608984101338 20.076588784377773 17.913406484329958 0 0 0
2818 37 1 17.40154142660376 5.583579664484424 10.76998765448701 0 0 0
7468 61 1 9.95967609426451 1.3877509396319454 23.199923433325402 0 0 0
7238 58 1 3.386633680905521 0.11184926773973772 17.37833521883734 0 0 0
7239 58 1 3.3694792878571427 26.307754908729347 18.833315807127214 0 -1 0
7240 58 1 4.663468184467294 0.05540429018866837 19.624891961223714 0 0 0
7241 58 1 4.45298925489353 26.631468443389245 21.129887761574913 0 -1 0
8452 35 1 5.521417357489098 13.074975251019987 21.926019528233347 0 0 0
7975 33 1 1.6667948737205065 7.679966395980848 7.6580089889254 0 0 0
9505 63 1 9.293503696733486 24.494337999117324 19.82473520740878 0 0 0
4537 42 1 17.644706009306763 20.931449927992617 0.3538390797399429 0 0 1
8618 12 1 8.913002445295403 15.345780855890515 21.147229884049203 0 0 0
7454 61 1 2.019028422708773 2.6161492909576287 7.492901443428486 0 0 0
7455 61 1 2.9207451599817453 3.342076277460171 8.539907020313326 0 0 0
7456 61 1 2.913672525643798 2.503465815456418 9.796388554449674 0 0 0
7457 61 1 3.9543029285511926 3.0779525961948684 10.807343267319796 0 0 0
7458 61 1 4.27497672529449 2.086724572426434 11.89595745704214 0 0 0
7459 61 1 5.288923780151069 2.7511347397938777 12.825707098884228 0 0 0
7460 61 1 5.565831144277167 2.100571387536181 14.121525643610914 0 0 0
7461 61 1 6.241366169580675 3.002945513640029 15.162149053783374 0 0 0
7462 61 1 6.7287381691625585 2.2329403600921336 16.38104648338543 0 0 0
7463 61 1 7.646465768234513 3.0364313891039094 17.343940909352106 0 0 0
7464 61 1 8.021648056929722 1.981723349047336 18.435522272333287 0 0 0
7465 61 1 8.917566110593455 2.4313813104207025 19.550409345364937 0 0 0
7466 61 1 9.129750297180951 1.4118979278351478 20.681642789446116 0 0 0
3042 25 1 18.148643821508855 7.844803576209984 3.1595009941906573 0 0 0
8060 54 1 4.157619249788138 8.830708055800917 20.826172065168116 0 0 0
9042 17 1 1.707672857955143 20.46856216139505 7.663188111611534 1 0 0
8835 58 1 4.135660503725008 17.33484074767641 21.008780824483463 0 0 0
8059 54 1 4.247378951168948 9.333395949504478 19.386191709929253 0 0 0
2820 37 1 18.686102037654074 5.565369833639416 12.806324962986789 0 0 0
8834 58 1 4.111937307102561 17.866582080617 19.56173459496501 0 0 0
8613 12 1 6.946345071327582 16.248600447805337 15.163416051223546 0 0 0
9046 17 1 4.295906614406944 20.521154033879785 12.028058115556384 0 0 0
9493 63 1 1.7316504329042235 25.223090615735543 6.54672700344331 1 0 0
2491 18 1 12.551034903647814 0.8806879328156922 0.8361465310541146 0 0 0
7687 6 1 3.1349240089203847 4.1692789531425385 18.595085676296257 0 0 0
7688 6 1 4.296400689329334 4.72357876936571 19.39612466263238 0 0 0
7689 6 1 4.294926847993592 4.198583991493879 20.877106805400242 0 0 0
7690 6 1 5.531730740841834 4.7571304203403155 21.538005935297466 0 0 0
315 53 1 15.264174024135688 2.5661891052439016 14.91269380089678 0 0 0
9504 63 1 8.110998379006036 23.95162735346606 19.054868266755545 0 0 0
8231 55 1 9.104874597465997 10.91587350788318 21.482955045271474 0 0 0
9053 17 1 8.952268658832947 19.952263108123248 19.6413115061094 0 0 0
1653 11 1 7.76528973785753 16.331871827631147 0.18317580970983158 0 0 1
4760 10 1 12.62367105123877 23.127260046046715 1.716729050805046 0 0 1
2502 18 1 18.42133446954661 0.7975027494139837 13.52564670143948 0 0 0
7977 33 1 2.937975586187569 7.495630146294299 9.89211413052549 0 0 0
7978 33 1 4.042166993025573 8.146022656652761 10.718369862895036 0 0 0
7979 33 1 4.09811876903289 7.388961039113034 12.047220912440022 0 0 0