LAMMPS data file via write_data, version 23 Jun 2022, timestep = 11112117

8487 atoms
2 atom types
8471 bonds
3 bond types
8455 angles
3 angle types
8439 dihedrals
3 dihedral types

0 36.89775039 xlo xhi
0 26.67072 ylo yhi
20.896226129202887 215.85537827074563 zlo zhi
0 6.133839428477995 0 xy xz yz

Masses

1 14
2 15

Pair Coeffs # lj/cut/omp

1 0.0914 3.95
2 0.1947 3.75

Bond Coeffs # harmonic/omp

1 449.5 1.53
2 449.5 1.53
3 449.5 1.53

Angle Coeffs # harmonic/omp

1 62.0967 114
2 62.0967 114
3 62.0967 114

Dihedral Coeffs # opls/omp

1 1.411 -0.271 3.145 0
2 1.411 -0.271 3.145 0
3 1.411 -0.271 3.145 0

Atoms # molecular

1 19 1 6.216488040997177 0.2270071803057768 26.924565989395255 0 0 0
2 19 1 6.172377802494543 0.44753131562023396 28.454329647459854 0 0 0
3 19 1 7.557299330585455 0.6766240318672483 29.13930859535482 0 0 0
4 19 1 7.632277547145649 0.5883714470810302 30.7040742233936 0 0 0
5 19 1 9.062459394633274 0.5361276356147308 31.208819518173605 0 0 0
1792 21 1 14.932762270234225 25.4345454823005 32.9917503524084 0 0 1
1788 21 1 11.91437207883998 25.488800162202544 28.992549541721438 0 0 1
1910 14 1 15.17904795172573 0.8585267005133067 28.094376716108002 0 0 1
1466 18 1 16.324097375793645 20.73564823929975 35.064145182080054 0 0 0
1233 16 1 3.923155840719354 18.00324963365949 23.78424096777702 0 0 0
7058 54 1 4.454716306502703 11.568432319982612 31.348674552596318 0 0 0
87 4 1 13.561042093144064 3.106479734759004 30.98123714332857 0 0 0
542 50 1 13.802346587883667 6.7456650781391625 32.02372384252328 1 0 1
1784 21 1 9.160128102778016 25.421989597874553 24.666872593854436 0 0 1
1129 11 1 11.43627592578768 14.155680713027623 35.01665819534173 1 0 1
7056 54 1 2.9582420827281277 11.512859720370052 29.27203364788183 0 0 0
1063 10 1 11.913270194864591 12.086418152055415 28.702128431594517 0 0 0
327 7 1 14.631064255558051 5.02781150658351 39.20336788163365 0 0 0
7257 52 1 2.8132847516321293 13.641746431125922 35.87543733555873 1 0 1
3013 29 1 17.347683711876385 15.89766184826178 23.15413689074663 0 0 0
35 19 1 3.6269948938458136 0.8608133834411742 23.93018466170414 0 0 0
36 19 1 4.966748885414874 0.5819640083438519 24.593176863509374 0 0 0
37 19 1 4.923377967877282 0.5711973867873857 26.102011430795375 0 0 0
3438 43 1 16.09393233507876 23.742340442346638 28.818409283722076 0 0 0
86 4 1 12.536830697816079 2.5095202020145324 29.99108833510007 0 0 0
2145 56 1 13.730361984451738 5.483400031103051 26.055259077033625 0 0 0
7538 34 1 6.93712060903672 16.09588454532946 36.27734541778252 0 0 0
1061 12 1 10.841149003448926 12.165974820684411 26.501247443282704 0 0 1
1130 11 1 11.962875201328652 13.32957030779454 36.20768325377912 1 0 1
538 50 1 10.733383710587287 6.910949971959106 27.905369993373988 1 0 1
82 4 1 9.53373598513733 2.580773195291394 25.802672987124183 0 0 0
2877 44 1 15.565088467508584 11.486492400609311 21.77061048953157 0 0 1
534 50 1 8.117855067113728 7.090209813776398 23.495002300381387 1 0 1
1128 11 1 10.493621776606798 13.4450763210871 34.01887270998651 1 0 1
539 50 1 11.628089205045363 7.637315324547681 28.805820727971422 1 0 1
7057 54 1 3.3959900543952224 12.314665281566784 30.492723776074516 0 0 0
532 50 1 6.588223373185369 6.925150335090032 21.48209925031995 1 0 1
90 4 1 15.102672452785725 2.061490494400701 34.404021957388906 0 0 0
1204 13 1 10.70682446656663 16.235221908099227 26.025371804976203 0 0 0
1909 14 1 14.949259063552761 1.394055736121637 26.72396167917846 0 0 1
2879 44 1 17.166097199161136 11.69095460072533 23.716148990714945 0 0 1
2147 56 1 15.228879501214426 5.708682081014945 28.08605761830048 0 0 0
2664 27 1 12.529061322352655 9.433184072763073 23.420690011938454 0 0 0
1246 16 1 13.613762988201529 18.48962540128925 37.33639313338134 0 0 0
3150 32 1 17.053324166589263 20.515008599496777 23.834339771460026 0 0 0
1826 35 1 16.10844602877576 25.53827281753977 35.30426929881951 0 0 0
324 7 1 12.000754530146603 4.689722488230006 36.39679918459364 0 0 0
92 4 1 16.38249042685206 2.2361595893320567 36.620418587747764 0 0 0
3149 32 1 16.509656112046503 21.317136805686737 22.672900771390555 0 0 0
3050 30 1 16.272118916995673 16.667017825868598 22.342793239366625 0 0 1
1748 20 1 6.472751405513975 23.31134171795247 27.251467388428924 0 0 1
1460 18 1 12.2404767225178 21.194605054404562 28.639098283481143 0 0 0
1212 13 1 16.139133422739132 16.364821018616247 34.764244728901396 0 0 0
8280 63 1 7.469481020684547 24.9737861663404 37.01726370324312 0 0 0
8271 63 1 1.2830331219221116 24.66265020179444 27.237402467621838 1 0 0
7529 34 1 1.13811707647085 16.343272420968983 26.604441564404436 0 0 0
1751 20 1 8.354807580256496 22.64412588662585 30.483707822818033 0 0 1
1231 16 1 2.310090815066215 18.09634913078205 21.795166384291775 0 0 0
3432 33 1 11.997322475887787 23.469530007648242 22.4304346334061 0 0 1
6795 23 1 8.118624563171714 7.658179175932759 36.19847850436223 0 0 0
1119 11 1 4.065062058746292 14.407632680240543 24.65000374348119 1 0 1
1747 20 1 5.426445386707192 22.465613826312854 26.54574423308598 1 0 1
3216 43 1 17.609762384638064 23.5489840239569 30.912004586460167 0 0 0
1907 14 1 13.749132790296358 1.0012221499690923 24.439426444342203 0 0 1
6084 9 1 4.759644475846777 0.6821066260467546 38.26013646022142 0 0 0
1709 19 1 9.900536224827047 22.350376911310562 32.473141148192184 0 0 0
7 19 1 10.491919522339932 0.40949698696085063 33.28070827529764 0 0 0
1781 21 1 6.708788370719185 24.81043798913981 21.738713934482394 1 0 1
6827 56 1 2.6275678912454596 9.179692894083738 35.7027048242471 0 0 0
1791 21 1 13.85576602281708 24.641915594552902 32.306374917379706 0 0 1
1232 16 1 3.450160865688326 18.837117575490478 22.538760592969997 0 0 0
11 19 1 12.995642806128622 0.15416195297120092 37.74219015007834 0 0 0
7534 34 1 4.251580792639799 15.938128638552431 31.892450755767822 0 0 0
2425 64 1 17.28622457167572 7.293505734252963 22.032844257104404 0 0 1
1205 13 1 10.76097536243235 15.76170044511399 27.52377871747887 0 0 0
6794 23 1 7.277056147046719 6.782877762957526 35.26428680815526 0 0 0
33 19 1 2.13666135164356 0.6922782245848057 21.97584149326874 0 0 0
1216 13 1 18.809787802980697 16.182880804721957 39.118908899391585 0 0 0
537 50 1 10.096842431800617 7.940763146035268 26.85188825214876 1 0 1
6825 56 1 1.5140039203338551 9.128168117470729 33.43112724340624 0 0 0
1905 14 1 12.301054234581995 1.3200683488710134 22.457478371565525 0 0 1
1906 14 1 12.362522060843773 0.758264276762961 23.866780373852933 0 0 1
620 9 1 11.814687105851384 9.146963217252976 36.2945635740581 0 0 0
621 9 1 12.860359956996547 9.927210930021687 37.023236876316815 0 0 0
1789 21 1 12.324297284255268 24.64564237189878 30.236211139778725 0 0 1
1467 18 1 16.97214199461936 19.957968857790192 36.26241097931349 0 0 0
1743 20 1 2.2111345509307023 22.662597524156517 22.514976956773197 1 0 1
1058 12 1 8.002499639641858 11.413435450164469 23.753174736436716 0 0 1
2366 56 1 12.227717135206353 4.972806837116933 22.401950090899838 0 0 0
1464 18 1 15.169811529527378 20.760346812427528 32.87031037956706 0 0 0
34 19 1 3.637225546951562 0.6901768889931903 22.421996369396176 0 0 0
8072 62 1 2.5489850806227192 23.008113398596894 36.65915597098279 0 0 0
7616 59 1 4.880541007934575 18.579628873523028 38.33054732532136 0 0 0
7055 54 1 2.0975460586443093 12.30157979568561 28.340542621154768 0 0 0
7258 52 1 3.180487152770792 14.318353529208244 37.21015168065534 1 0 1
541 50 1 13.058436380717417 7.486248148810232 30.925949364174635 1 0 1
1199 13 1 6.30011052984802 15.669825807465227 21.436474699762535 0 0 0
839 9 1 8.40222704352788 9.7172878541606 31.056314219699495 0 0 0
6080 9 1 2.0063905531501907 0.689545525572016 34.13973006692515 0 0 0
6303 63 1 1.290396942920731 2.2422951036724874 27.190487288384617 0 0 0
3148 32 1 15.426412920148271 20.528575813641893 21.879824132141938 0 0 0
840 9 1 9.145045160588175 8.898888549140764 32.044615784935615 0 0 0
841 9 1 9.840425042627812 9.84374864720999 33.015280338329305 0 0 0
842 9 1 10.467659840620538 8.892201911527158 34.01904208735665 0 0 0
843 9 1 11.213267838582066 9.815049292866485 35.04708738592792 0 0 0
844 10 1 14.588724177472741 11.72376151561312 34.38139270483483 0 0 0
845 10 1 15.778854427400221 12.434535426810035 35.06946626742283 0 0 0
2365 56 1 10.815285562826425 5.02958115775578 21.88359304268005 0 0 0
1908 14 1 13.838146416074292 0.6498989462138877 25.922027111774 0 0 1
7614 59 1 3.53382237186035 18.57225879771865 36.26988866024959 0 0 0
831 8 1 2.675989741323658 9.96784338230487 22.67410290854292 1 0 1
2665 27 1 13.852021953762305 9.05902511501106 24.113068290935566 0 0 0
8 19 1 10.389529645631724 0.5787238352210345 34.79488228873541 0 0 0
836 8 1 6.696733779615469 9.157443346375445 27.749451330688682 0 0 1
1462 18 1 13.569038170257905 20.92829132854958 30.929234083100646 0 0 0
1124 11 1 7.547613488257855 13.52338506686399 29.891849229397828 1 0 1
1904 14 1 10.986915686177078 0.9313496063954577 21.763142724298667 0 0 1
2663 27 1 12.079484702505082 8.631088205577116 22.2276996155825 0 0 0
3918 2 1 1.5875571120286398 3.1160074233665345 40.02782519496114 0 0 0
1064 10 1 12.277866894283013 11.351810022331861 29.997947381908844 0 0 0
1065 10 1 13.08535706736563 12.322191378204113 30.926422009704368 0 0 0
1066 10 1 13.327689079908767 11.679774931158946 32.22132954311069 0 0 0
1067 10 1 14.277548473690436 12.504654762719312 33.12693244544643 0 0 0
838 9 1 7.6305714079641715 8.93711169510624 30.017641586486057 0 0 0
8279 63 1 7.246691334769169 24.68156113124558 35.50509281265329 0 0 0
7844 60 1 8.858053859838018 20.549442895450905 37.27006552884044 0 0 0
1126 11 1 8.905971974983727 13.575386684653674 32.026861582621194 1 0 1
1131 11 1 12.686613129995958 14.281584286819813 37.170452236491556 1 0 1
1244 16 1 12.298498103401647 18.42036775806118 35.220970412943885 0 0 0
1782 21 1 8.080355406162548 25.07393290442881 22.420808109561996 1 0 1
80 4 1 8.173572385721464 2.48072452462813 23.601933254768216 0 0 0
1786 21 1 10.681350804380639 25.473315591105205 26.799577142360793 0 0 1
85 4 1 11.976638460631342 3.281152838917703 28.828466539524726 0 0 0
6513 22 1 2.504865716848826 4.455652379198944 34.86524160957927 1 0 1
6831 56 1 5.63550505023485 8.664284933784913 39.80235316849027 0 0 0
7066 54 1 10.398008723170861 11.799064161643896 39.75011947053595 0 0 0
3054 31 1 14.35740852500813 18.15366996705693 25.59542752645113 0 0 0
7835 60 1 1.614366713377572 20.660781835431997 28.28018462249502 0 0 0
1201 13 1 7.688925044464433 15.663074685722233 23.516749749811495 0 0 0
6830 56 1 4.512465808723204 9.46387764942098 39.101430673545096 0 0 0
1122 11 1 6.098525728369914 13.520210012111718 27.853705977359496 1 0 1
1211 13 1 14.815839544031233 16.018544500054848 33.98367839142466 0 0 0
6085 9 1 4.908558232631971 26.61657889746861 39.55977314117839 0 -1 0
6516 54 1 4.588495467553946 5.064287241571511 38.01035869040636 1 0 0
6798 23 1 10.003574444482107 6.803152855664619 39.416690305745725 0 0 0
1123 11 1 7.2095879739646165 14.223814950981952 28.58876104422562 1 0 1
1783 21 1 8.019573226886306 24.720362518739424 23.867833729532933 1 0 1
3437 43 1 15.646725309277622 23.045654423906218 27.55815654188182 0 0 0
7259 52 1 4.211723732670141 13.553521241983788 38.05254640946751 1 0 1
321 7 1 10.483398479449715 5.215409463713449 32.83509070862381 0 0 0
1120 11 1 4.6531465769183935 13.596598882680384 25.875207191313937 1 0 1
8071 62 1 2.243621882072416 22.40015025804725 35.32623159594553 0 0 0
3057 31 1 16.35253881536471 18.88919131256268 28.869594549244525 0 0 0
326 7 1 13.279131312836967 4.702613544341624 38.566824473866895 0 0 0
540 50 1 11.935259798088557 6.84373460124383 30.07450259002735 1 0 1
1206 13 1 11.996507871263303 16.14484058748802 28.34366767614842 0 0 0
1241 16 1 9.349701185257798 18.27744542163076 32.56661668336309 0 0 0
3087 31 1 11.352316186939406 18.216297429846215 21.49685241693035 0 0 0
544 50 1 15.57499713593343 6.782679726274543 33.929145869249865 1 0 1
1677 18 1 6.591434129424687 20.455092962811072 21.541852610747195 0 0 0
1827 35 1 16.39483194569994 24.668814562348384 36.542980209722145 0 0 0
1744 20 1 3.5141352714080454 23.14990085482938 23.121347366500633 1 0 1
1207 13 1 12.133716532881657 15.844440667876947 29.874446787359073 0 0 0
316 7 1 6.359556027432744 4.301493631737067 28.054899321091128 0 0 0
1746 20 1 4.922914522518895 23.025956448922134 25.17958696442568 1 0 1
3061 31 1 18.77809065630171 18.645732881802033 33.09399875877629 0 0 0
833 8 1 4.168957608575972 9.951165245343176 24.8452444030369 0 0 1
6315 63 1 9.876780579159831 2.339908456702175 39.6176715666047 0 0 0
1234 16 1 5.102076218972788 18.448827891211 24.589569854964648 0 0 0
1235 16 1 5.285761549340053 17.883617771108106 26.033234200789174 0 0 0
1236 16 1 6.602455296314876 18.310426494374735 26.61154917044602 0 0 0
1237 16 1 6.596724743105003 17.9134923213851 28.0880422271936 0 0 0
8070 62 1 0.9916951682214137 23.000767619959916 34.69244460246559 0 0 0
2150 56 1 17.82321112763355 5.707322358285844 30.779759865641196 0 0 0
3439 43 1 16.953266013562885 22.836620257417138 29.64651537116034 0 0 0
6788 23 1 2.993673883717867 6.632659356757828 29.130018731409116 0 0 0
7613 59 1 2.18690984566633 18.23884953430475 35.61693138504717 0 0 0
7065 54 1 9.209686449144556 12.352181383186732 38.90497777269585 0 0 0
1787 21 1 10.796860712470943 24.88503949505594 28.192239794689414 0 0 1
2442 27 1 13.841096897936172 9.675413667035398 25.545662167307952 0 0 0
1678 19 1 14.161827825956252 22.5310124856228 38.626925611275446 0 0 0
3052 31 1 12.828172470900748 18.14716998718757 23.541084382634647 0 0 0
4356 39 1 1.0098499087066322 6.637758543074952 39.05132299747768 1 0 0
325 7 1 13.308138061902714 4.898826897642591 37.06954945785721 0 0 0
2957 28 1 15.577140788191798 13.565514605491552 27.965952674130868 1 0 1
7539 34 1 8.2884535395198 16.50483676433677 36.8243149630589 0 0 0
2136 24 1 16.971642165723196 3.52361496439626 22.205244672612984 0 0 1
1745 20 1 3.906578599548874 22.39080258838373 24.359977683615586 1 0 1
1455 18 1 8.066193513024066 20.476440524306653 23.680130222149657 0 0 0
1456 18 1 9.444952505931507 20.815573434380394 24.263971254803764 0 0 0
1457 18 1 9.63864206090564 20.43283312820926 25.741314672610738 0 0 0
1458 18 1 10.935518926784907 20.94280802675766 26.38433163535764 0 0 0
1459 18 1 11.05911642652008 20.601551437369977 27.88370451382817 0 0 0
8069 62 1 0.7804736711731318 22.415569890122434 33.318457287674825 0 0 0
548 50 1 18.114483208575052 6.918992402825124 38.19500158484 1 0 1
3058 31 1 17.002724873704437 17.84588361723446 29.74804949599567 0 0 0
6305 63 1 2.557088285331055 2.3371952377561156 29.306512834795562 0 0 0
7615 59 1 3.6640772603050342 17.969657826518084 37.62844731655481 0 0 0
2958 28 1 16.765072791405046 14.045264078641296 28.78197822625345 1 0 1
7061 54 1 6.157194654855156 12.057358003035237 34.819087034369005 0 0 0
2445 27 1 16.45937517018192 9.861384866945905 28.34898513224032 0 0 0
2149 56 1 16.478356416446434 5.27406913121279 30.103801592074095 0 0 0
6302 63 1 1.175074746658177 2.793684526798779 25.769360999157144 0 0 0
319 7 1 8.630223856601253 5.4546044135623735 31.05695816424781 0 0 0
7610 59 1 0.545542165422285 18.455060954399098 32.03192217141788 0 0 0
3049 30 1 15.921602306505758 15.87479711359277 21.08323695683222 0 0 1
7846 60 1 10.187928421787394 20.3603425143874 39.357035880524435 0 0 0
2662 30 1 10.953571616725549 9.272632814553491 21.437471261792325 0 0 1
3059 31 1 17.311159899728278 18.53411549660986 31.049390874465946 0 0 0
93 4 1 17.64984461201342 2.8841877673791236 37.20309245938337 0 0 0
536 50 1 9.712552629098225 7.181853811075652 25.636971727249126 1 0 1
2959 28 1 16.875337864005274 13.379835187826666 30.109861371429172 0 0 1
313 7 1 4.653772152601775 5.239178746669089 24.692951329454473 0 0 0
88 4 1 13.53041765153389 2.44590495814697 32.360271514108746 0 0 0
8273 63 1 2.8413682844708514 24.693212447952703 29.16611961226634 1 0 0
4810 42 1 0.9297165647128696 11.461136821714089 39.80536685511905 0 0 0
2144 56 1 13.674394781555694 5.149512598566053 24.58704535530875 0 0 0
1118 11 1 2.938471631967394 13.739445656280298 23.891561929422842 1 0 1
1202 13 1 9.125559300958704 16.074134389916612 24.030435547919478 0 0 0
1465 18 1 15.533429739453329 19.975337519077417 34.062013567300845 0 0 0
6311 63 1 7.093038001739885 2.6183028908777124 35.40444321377386 0 0 0
2448 27 1 17.502615765131377 10.08935354630597 32.145839686075284 0 0 0
310 7 1 2.48712130925739 4.765686638345102 21.49581354436456 0 0 0
1710 19 1 10.326196203644622 23.022439502534905 33.797654108607325 0 0 0
1711 19 1 11.280173871517315 22.161914361701847 34.60909261926665 0 0 0
1712 19 1 11.485284933235176 22.92398460797938 35.864691292303156 0 0 0
1713 19 1 12.683468774509691 22.377162898760076 36.66323219529778 0 0 0
1714 19 1 12.90628962796686 23.006777675001196 38.00115201338359 0 0 0
8075 62 1 5.271202995264932 22.494234675419897 39.459959194089386 0 0 0
6829 56 1 4.115050532414682 9.010248687910599 37.70818415847566 0 0 0
848 10 1 17.68859002990633 11.596183030470671 38.264156922680016 0 0 0
3433 33 1 12.76804865667364 22.667474776091897 23.483883973680285 0 0 1
5552 46 1 0.833488529696881 20.467961806944402 39.31235184754456 0 0 0
7838 60 1 4.538797290923572 20.246431945491658 30.854690534761914 0 0 0
1242 16 1 10.77397743861602 18.532755181976754 33.180032226371935 0 0 0
1749 20 1 7.120240035853817 22.543141149438206 28.405783039751753 0 0 1
7060 54 1 5.9579474949288675 11.442232125886829 33.46587004378584 0 0 0
10 19 1 11.6138246427281 0.3738018051068486 37.14000613144569 0 0 0
1214 13 1 17.630358967644362 16.343840081351036 36.91213825097138 0 0 0
1708 19 1 8.874681614795218 23.206047323686015 31.819557537371132 0 0 0
2954 28 1 13.980711668417825 14.480153733689264 24.45578697652287 1 0 1
2367 56 1 12.300174399471206 5.1709936529995195 23.95689238165521 0 0 0
79 4 1 7.477185739570901 3.371258641791002 22.587040652889446 0 0 0
6312 63 1 8.067702041363054 3.3458138762497907 36.22785780258224 0 0 0
846 10 1 16.13444285798827 11.784280671967037 36.44351609647659 0 0 0
2447 27 1 17.598431212438435 9.876015164102203 30.64557458090725 0 0 0
7479 52 1 1.3857268231287663 13.750555653316503 33.971273037073615 1 0 1
13 19 1 14.50426813181401 0.13598740920775979 39.63462363342743 0 0 0
3056 31 1 15.707106770248712 18.126422081212382 27.739263493814885 0 0 0
3055 31 1 14.922928987915599 18.957118059488742 26.752129159548694 0 0 0
314 7 1 5.205524566208908 4.298073000294094 25.770952487581436 0 0 0
1209 13 1 13.561303372052336 15.897435241022608 31.919531119166766 0 0 0
546 50 1 16.85031050842375 6.999886358207294 36.02863950998294 1 0 1
1469 18 1 18.228362028196084 20.117072375412175 38.50508026945071 0 0 0
6793 23 1 6.490638545568797 7.7482830033686225 34.4013146483861 0 0 0
1203 13 1 9.571083465597628 15.432150074496612 25.380896635211208 0 0 0
315 7 1 6.109682417647195 5.071230540557519 26.757211123062444 0 0 0
7840 60 1 5.772661850470643 20.3896772853174 33.12878859932525 0 0 0
9 19 1 11.703119345585108 0.3315861291177163 35.61031827996879 0 0 0
7836 60 1 3.0150023115452895 20.260531045562892 28.813268037685194 0 0 0
7537 34 1 6.871396408170098 16.385151510241265 34.76450363854167 0 0 0
1742 20 1 1.9776242826736852 23.123358330275323 21.06795383200003 1 0 1
6314 63 1 9.40986205299237 3.2014046910827862 38.45969933660881 0 0 0
320 7 1 9.133472588605725 4.754145186472919 32.25541012339758 0 0 0
1238 16 1 7.878014936236475 18.30891574454105 28.887603326966552 0 0 0
6828 56 1 2.918198681441657 9.719005119527553 37.08066992860602 0 0 0
7530 34 1 1.4455100621694361 15.730088148341293 27.944553513040955 0 0 0
1057 12 1 7.856855956638946 11.834593375218349 22.268110976278045 0 0 1
1116 11 1 1.6332536590769688 13.724473043900137 21.740878084805576 1 0 1
2424 64 1 15.954004297246334 6.960938131267675 21.358344653311377 0 0 1
8283 63 1 10.200565677228514 24.3697782403515 39.83060088954274 0 0 0
535 50 1 8.827475767738724 7.8725947535175775 24.591724694554298 1 0 1
3051 31 1 11.960911950594227 19.01991846885854 22.58367006629199 0 0 0
7532 34 1 3.112358651116966 15.65512489415696 29.717601790572594 0 0 0
533 50 1 7.258540363745879 7.826730782821995 22.476662308220487 1 0 1
547 50 1 17.22944823923415 7.778574688703275 37.27119392942749 1 0 1
7063 54 1 7.786529182028246 12.111286861127311 36.70645681267929 0 0 0
6789 23 1 3.5504525037769703 7.5002016628194506 30.239720247879028 0 0 0
6792 23 1 5.457094945233757 6.979173775003328 33.63194112837985 0 0 0
7533 34 1 4.107573453419874 16.459470951254566 30.464319635689257 0 0 0
6083 9 1 3.857552328251622 26.52891135975576 37.41695141134888 0 -1 0
1125 11 1 8.55832505412804 14.290710083261079 30.709987851517997 1 0 1
1127 11 1 10.050429565380883 14.265181627088877 32.780673455825706 1 0 1
7842 60 1 7.226828092874882 20.385056254660118 35.11300622844387 0 0 0
2135 24 1 15.649364381662595 2.925360620997085 21.66398251459198 0 0 1
623 9 1 14.234115862633374 9.79010660974345 39.20307127428987 0 0 0
7256 52 1 1.5950989706387775 14.278977424540523 35.36755786531015 1 0 1
543 50 1 14.80080929721067 7.519842784100994 32.84988837445269 1 0 1
6826 56 1 1.8571117579409597 9.989125749741763 34.67776688423662 0 0 0
8281 63 1 8.741039565048464 24.556440605797928 37.66770715018306 0 0 0
6304 63 1 2.3436868334102563 3.0447012371916853 27.953367814162736 0 0 0
1828 35 1 17.555145154482073 25.24889023388126 37.39302578777453 0 0 0
1240 16 1 9.283761370816968 18.324224693433063 31.036121168483476 0 0 0
6310 63 1 6.605008178826914 3.2531647213933534 34.05600224396763 0 0 0
78 4 1 6.798815455742432 2.549285615108154 21.566508954020446 0 0 0
322 7 1 10.683713701274703 4.7042102118502696 34.27064084962575 0 0 0
2960 28 1 18.195627317801588 13.68271591795451 30.785414684974043 0 0 1
3455 35 1 17.179088772621984 25.50741238447415 23.90094011831037 0 0 0
7845 60 1 8.755390926612396 20.637363552410495 38.770428517859514 0 0 0
1243 16 1 11.010306922249553 18.068087363070497 34.60896822126604 0 0 0
1785 21 1 9.597893294363907 24.778699923570265 25.979608188231268 0 0 1
7617 59 1 5.116365064853127 17.980731060460677 39.72908460171889 0 0 0
1454 18 1 7.9281771705240205 20.76834521209621 22.181270128918985 0 0 0
7837 60 1 3.449964984899208 20.98767518213234 30.112724373364628 0 0 0
6081 9 1 2.098637141506809 0.23671999517486444 35.55184304639793 0 0 0
7611 59 1 0.7050455250360426 18.134741532474138 33.50929997248444 0 0 0
1913 14 1 17.760155124007444 1.1637032150010984 31.05261887931138 0 0 1
1750 20 1 7.542798532302802 23.47724675744052 29.55196286702941 0 0 1
3454 35 1 17.15920862395766 25.131072435527923 22.408981703591518 0 0 0
7541 34 1 9.8137284721248 16.27720516648151 38.87862988502188 0 0 0
1208 13 1 13.422657339277878 16.350468665310256 30.496071297695316 0 0 0
1117 11 1 2.86624270428508 14.208089470724675 22.442658597704927 1 0 1
835 8 1 5.677202486133864 9.908664820000181 26.87033297241623 0 0 1
7612 59 1 2.0845451519702656 18.49323305284463 34.12025219838931 0 0 0
6796 23 1 8.787709331002807 6.788335528770708 37.2497398050745 0 0 0
6512 22 1 1.893962295459912 5.225167813817021 33.68739288632321 1 0 1
3434 33 1 13.34489515810336 23.618109303554917 24.516744781515033 0 0 1
84 4 1 10.976073037057 2.5136164629846953 28.005332007458403 0 0 0
622 9 1 13.307147225315154 9.112824411272536 38.20603955850718 0 0 0
2878 44 1 17.04911483231716 11.483683968310805 22.186464846103778 0 0 1
6313 63 1 8.412650508554561 2.531270656738696 37.525124124138316 0 0 0
8277 63 1 5.916039449961276 24.74801068658759 33.302512959214795 0 0 0
2446 27 1 16.327394753731017 10.154248268657076 29.818530264314887 0 0 0
7064 54 1 8.863771034138912 11.51764543356829 37.66679393973199 0 0 0
545 50 1 15.941459299986885 7.709595803565935 35.04824505410409 1 0 1
3053 31 1 13.50957903502547 18.998372108572703 24.563189849347633 0 0 0
2952 28 1 12.459486826276423 14.280978193572489 22.40615405453298 1 0 1
7059 54 1 4.998580203352134 12.307243742292464 32.57023703425811 0 0 0
1213 13 1 16.320259513481393 15.999644130772658 36.21704335267475 0 0 0
1121 11 1 5.778597286013189 14.33198427130467 26.59198483565953 1 0 1
2443 27 1 15.142580475232485 9.338576319187919 26.37691365470192 0 0 0
6082 9 1 3.430948167268951 0.626953960916335 36.158153001948605 0 0 0
1239 16 1 7.911408712427765 17.976759993697883 30.41386974690154 0 0 0
312 7 1 4.004098549545399 4.456334932190578 23.575782802382065 0 0 0
1059 12 1 9.36805452665342 11.885458428343586 24.35592574391937 0 0 1
6517 54 1 5.4737855895052325 4.284757270663694 38.991058221079726 1 0 0
847 10 1 17.389406786403704 12.418894212720792 37.06132696929319 0 0 0
6079 9 1 0.6530069705123905 0.28849946104122587 33.45254792266154 0 0 0
6790 23 1 4.314252675640714 6.744738710482236 31.350661133791615 0 0 0
12 19 1 13.280000580690894 0.7492272164603762 39.08147973539105 0 0 0
830 8 1 2.198535204686244 9.245413072719378 21.43191613422198 1 0 1
832 8 1 3.7871875279899068 9.253701208486955 23.525442346970518 1 0 1
3151 32 1 18.09377374192803 21.190980340720888 24.70354185676803 0 0 0
1200 13 1 7.482335816407845 16.254296060354807 22.175383154070797 0 0 0
6791 23 1 4.975022997517838 7.693432188233005 32.39434312858067 0 0 0
1911 14 1 16.42816893434126 1.4170173536010355 28.86540953062191 0 0 1
3060 31 1 18.344255532217566 17.805992369070548 31.892602500516144 0 0 0
1215 13 1 17.46355507965514 15.972345039568781 38.386622683475295 0 0 0
1679 19 1 14.46233816409742 23.04185109748066 40.01587259929826 0 0 0
317 7 1 7.251445315277425 5.215511712821045 28.86536220063713 0 0 0
8074 62 1 3.8996271233743296 22.87067937575175 38.84368783455628 0 0 0
6797 23 1 9.43272365582624 7.655775131014509 38.29066399862161 0 0 0
3435 33 1 14.280913542522201 22.879228476707834 25.490086406423067 0 0 1
2953 28 1 12.761022818933379 13.862108203182574 23.820590721202937 1 0 1
837 9 1 6.973051151209789 9.875812007464951 29.046470057485863 0 0 0
1245 16 1 12.252284252960633 18.182476799673942 36.714302196114346 0 0 0
8276 63 1 4.622356695378774 25.262616719450936 32.61489463356333 0 0 0
7054 54 1 1.4567212501100577 11.488453198022068 27.26332961919988 0 0 0
94 4 1 18.106284280358903 2.2063878819712985 38.52026769759101 0 0 0
2426 64 1 17.13562669037662 7.488463409049609 23.553751608509245 0 0 1
7053 54 1 0.6113561665030911 12.37527135456712 26.287413700066796 0 0 0
311 7 1 3.444047418968854 5.456476010879183 22.521672990710588 0 0 0
1060 12 1 9.584703462578263 11.637924712449852 25.87628752299223 0 0 1
6824 56 1 0.534326485917735 9.84975086638244 32.54299262300479 0 0 0
1829 35 1 17.858948637972844 24.461149723143123 38.66486089561473 0 0 0
318 7 1 7.6004812536661275 4.65245407945782 30.26907923423265 0 0 0
3217 43 1 18.503817600991052 22.561846498429983 31.73094929716094 0 0 0
2955 28 1 14.113887635016996 13.985912435325266 25.852569870264617 1 0 1
1210 13 1 14.867007987092565 16.357051800984884 32.49491753289672 0 0 0
1247 16 1 13.6012837963426 18.38232040954361 38.870364834811866 0 0 0
3152 32 1 18.504712709936655 20.41202011094147 25.96386580010411 0 0 0
323 7 1 11.982502325349403 5.080766242190111 34.930705685998525 0 0 0
1132 11 1 13.072755888237992 13.728277649443838 38.52718975057442 1 0 1
7536 34 1 5.915124487447016 15.675812806361336 33.79249152529041 0 0 0
91 4 1 16.14751716793864 2.804363589924567 35.20022814184598 0 0 0
1912 14 1 16.833127169258272 0.5257294647624821 30.064811800862643 0 0 1
8272 63 1 1.70853411160832 25.41390968715505 28.500795600615426 1 0 0
3431 33 1 11.477682662295038 22.76169387918036 21.15649678512153 0 0 1
1463 18 1 13.787365786936926 20.287084613049217 32.31914327675769 0 0 0
6 19 1 9.097962216140791 0.2877661739398044 32.707192684580654 0 0 0
8073 62 1 3.796009720433574 22.548637908823373 37.3616918756113 0 0 0
1793 21 1 15.237964254200676 24.70301766293394 34.34978486897485 0 0 1
1248 16 1 14.989326972101017 18.647835263748597 39.37681914231973 0 0 0
6307 63 1 3.7888206836154885 2.450596476863578 31.594146877098723 0 0 0
6308 63 1 4.897382879273293 3.2418192625446225 32.14464792354872 0 0 0
6309 63 1 5.462030281258276 2.486398109332914 33.369910004030295 0 0 0
1133 11 1 14.266562112165987 14.34326970207258 39.35746137104343 1 0 1
7841 60 1 5.81499472334654 20.631825875943555 34.58637672877658 0 0 0
1062 12 1 10.944987324535937 11.409018092886342 27.78790426380241 0 0 1
6785 23 1 0.5708983537612472 7.1066702094792085 26.22586172684397 0 0 0
1468 18 1 17.85827464990652 20.776973757408097 37.182537344377764 0 0 0
8278 63 1 5.989093065201531 25.18271209062478 34.81356547083859 0 0 0
7535 34 1 5.2832062303822065 16.60962772101974 32.728806549432676 0 0 0
7531 34 1 2.7521315839005536 16.32850075440618 28.387961297549616 0 0 0
89 4 1 14.804376355192511 2.8976205462512974 33.158447711727554 0 0 0
7260 52 1 4.551516327697488 14.280805518252416 39.318928737209504 1 0 1
83 4 1 10.33309735198044 3.3645487280318895 26.836817692586898 0 0 0
2151 56 1 18.329692675080807 4.967560172055262 32.038834633321386 0 0 0
6514 22 1 3.3740252217570945 5.266162189689962 35.77233383809079 1 0 1
834 8 1 5.131818252381072 9.100487438828495 25.684363993683135 0 0 1
6306 63 1 3.246181254180923 3.182747153190222 30.336813034769015 0 0 0
6515 54 1 3.9725061260915817 4.32218884881714 36.85711486847349 1 0 0
7843 60 1 7.502877071875036 20.7914072628648 36.542509148485905 0 0 0
3456 35 1 18.335279041262307 24.98144832053027 24.75788215993556 0 0 0
7540 34 1 8.34681599568587 16.147088735715574 38.29153028746397 0 0 0
6518 54 1 6.186655401454158 5.185901069028758 40.000539543342676 1 0 0
8275 63 1 4.485439812154511 24.735222187506157 31.173633087357263 0 0 0
8282 63 1 8.9639966057542 24.99451974738986 39.100801245381675 0 0 0
1461 18 1 12.317140622991749 20.626482945283517 30.05203706223739 0 0 0
8274 63 1 3.2949362458544726 25.337747392239372 30.46681591632523 1 0 0
81 4 1 9.027740124469554 3.3514995166253083 24.512590541381226 0 0 0
2137 24 1 17.173170626368357 3.0745759975182865 23.611209627325007 0 0 1
1790 21 1 13.260954548005616 25.410183278134046 31.20433678213041 0 0 1
2146 56 1 15.224040091878022 5.585428852215522 26.587662136546157 0 0 0