LAMMPS data file via write_data, version 23 Jun 2022, timestep = 11112117

8487 atoms
2 atom types
8471 bonds
3 bond types
8455 angles
3 angle types
8439 dihedrals
3 dihedral types

0 36.89775039 xlo xhi
0 26.67072 ylo yhi
26.015070085589343 210.7365343142832 zlo zhi
0 5.811739475308525 0 xy xz yz

Masses

1 14
2 15

Pair Coeffs # lj/cut/omp

1 0.0914 3.95
2 0.1947 3.75

Bond Coeffs # harmonic/omp

1 449.5 1.53
2 449.5 1.53
3 449.5 1.53

Angle Coeffs # harmonic/omp

1 62.0967 114
2 62.0967 114
3 62.0967 114

Dihedral Coeffs # opls/omp

1 1.411 -0.271 3.145 0
2 1.411 -0.271 3.145 0
3 1.411 -0.271 3.145 0

Atoms # molecular

1 19 1 10.358318734384815 1.162533080696541 36.26608610162453 0 0 0
2 19 1 11.39808864255257 0.4241234293982736 37.14127291189842 0 0 0
3 19 1 11.988942552144474 1.3560619435632923 38.26340764497016 0 0 0
4 19 1 12.996448225932474 0.5592275610028293 39.15351959844713 0 0 0
5 19 1 13.971866268488153 1.3905999350183167 39.999496125078615 0 0 0
6 19 1 14.58636481804824 0.37687294233321206 40.92852065183043 0 0 0
1709 19 1 3.328821287901272 22.477689893837784 27.415310592640914 0 0 0
8274 63 1 0.8822024708973397 24.965139192520724 29.547342057482425 1 0 0
2887 44 1 17.98600734057331 11.460879822222427 29.062148326286685 0 0 1
7606 59 1 3.4239740340071445 18.95013488076641 39.56301050205346 1 0 0
553 50 1 8.459980839375254 7.756870030356594 28.16875840649101 0 0 1
1674 18 1 7.121054810968972 21.02839191361971 26.17135023347724 0 0 0
1203 13 1 17.33298909906328 15.911567371342517 39.12054118628361 0 0 0
7527 34 1 4.283994869156097 15.602669155552407 34.06568931505836 0 0 0
1143 11 1 8.257261878535038 13.6292721933635 33.36044668842085 0 0 1
554 50 1 8.837680549180774 7.219071081741164 29.574425405454534 0 0 1
7264 59 1 0.5521973167325733 14.308647684365077 34.978247894285715 1 0 0
32 19 1 6.0113895264760195 1.0556751978508572 30.215384609998228 0 0 0
33 19 1 7.101301007286254 0.37601121709591234 30.995817963081883 0 0 0
34 19 1 7.376782752094059 1.1484551528363516 32.31051077118396 0 0 0
35 19 1 8.352715241126074 0.3848908954572535 33.141550291645586 0 0 0
36 19 1 8.711408644963141 1.0689316447308423 34.439677273552235 0 0 0
37 19 1 9.968059701163947 0.5203040758407289 34.96404892144983 0 0 0
75 4 1 11.217409421232079 2.6723571738776633 31.23773334578359 0 0 0
76 4 1 11.590231552533053 3.432021522397053 32.55712726237498 0 0 0
77 4 1 12.839428974513826 2.7586842090848247 33.1144428097347 0 0 0
78 4 1 13.257318780419892 3.379246145127925 34.52649675989904 0 0 0
79 4 1 14.329761531099594 2.6550571165689076 35.35036488859553 0 0 0
80 4 1 14.862115491069806 3.524467045081936 36.440810721866654 0 0 0
81 4 1 15.972524706030763 2.784596140551256 37.18872594875394 0 0 0
556 50 1 10.607649197263495 6.902802618614616 31.44066687344653 0 0 1
2924 13 1 17.436596399197565 14.476401666024993 34.04544209191836 0 0 0
7607 59 1 4.7289489732147425 18.36856507819076 40.17904052933791 0 0 0
3058 31 1 17.51305564032936 19.14646817708209 33.67906019437883 0 0 0
7271 59 1 5.773781379256478 13.803214089786698 42.336035898567545 0 0 0
837 9 1 2.9266715756299733 9.01099703179774 27.893867398798907 0 0 0
8281 63 1 6.493240102649367 25.7184098753857 36.30688259797881 0 0 0
6791 23 1 11.460763327772696 7.664635327363651 43.500955826710936 0 0 0
74 1 1 4.4101785661439346 0.8771682988725085 28.41975026098791 0 0 1
6523 54 1 1.3289120651339794 5.685161172041031 37.70025076491537 1 0 0
298 4 1 10.13912940450572 3.3998145900296306 30.41534587583859 0 0 0
299 7 1 8.706486121436424 5.466677751854017 34.69717254205902 0 0 0
300 7 1 9.630916669589684 4.588280951687559 35.57861985091066 0 0 0
301 7 1 10.26524308732279 5.461877753266298 36.65081066553535 0 0 0
302 7 1 10.974628128440342 4.669623502139894 37.717731337666656 0 0 0
303 7 1 11.592591070881038 5.386984495677166 38.89767991302175 0 0 0
304 7 1 12.86966626210111 4.7957954843718795 39.486853468371976 0 0 0
305 7 1 13.225845640930917 5.579147781707531 40.646852006949956 0 0 0
3217 43 1 14.077659254704173 22.713294035324644 28.882159344291964 0 0 0
2973 28 1 14.521742278927558 14.306087880875722 30.112326509308446 0 0 1
295 4 1 8.079780699961878 2.6898751217496484 27.133370151031716 0 0 0
1798 35 1 16.24259837250123 25.38964292780293 38.416838738492665 0 0 0
552 50 1 7.216585190781614 7.166115973780288 27.530421672540673 0 0 1
8278 63 1 3.7137453400899236 24.981009801563424 33.76497393052907 0 0 0
2663 27 1 14.305242851027776 9.935802477153098 30.040281233030562 0 0 0
6303 63 1 1.1853904648756295 3.260058921159073 31.418909577949137 0 0 0
558 50 1 12.0022899885375 7.138460270289146 33.50456068749808 0 0 1
83 4 1 17.403172184525385 2.6105822939531844 39.31725313149448 0 0 0
517 7 1 4.013077554019606 5.463282766468184 28.72605796912506 0 0 0
518 7 1 4.619950282936113 4.6394008589396805 29.904833808055926 0 0 0
519 7 1 5.5471131215957135 5.472733889292641 30.788221635237207 0 0 0
520 7 1 6.418324403355507 4.593692423280691 31.696053084798212 0 0 0
521 7 1 7.100100058685374 5.484094936012626 32.67043513236963 0 0 0
522 7 1 8.069924612634503 4.686331111246175 33.54568374032903 0 0 0
1060 12 1 7.262150975545982 12.265543615374373 26.275478319888425 0 0 1
3221 43 1 17.07901759126573 22.761220587053895 32.95772778620899 0 0 0
1449 16 1 2.6985664960543527 18.260565191763035 26.465239243632798 0 0 0
7608 59 1 4.934852273077635 18.99066640189618 41.54881492394695 0 0 0
1793 21 1 8.760547946864373 25.13516066839562 28.05821353247995 0 0 1
8058 62 1 1.4311733393317776 22.48996893133205 36.29824062782777 0 0 0
82 4 1 16.372934834128046 3.399688220492892 38.50513953720615 0 0 0
3054 31 1 14.620557782325301 19.139302938676078 29.544364401843136 0 0 0
6819 56 1 0.8132316763819492 9.252691115892107 36.41167000892508 1 0 0
2975 28 1 15.889124125887626 14.327525943587798 32.18842968306752 0 0 1
7604 59 1 1.942255899443484 18.960167800060777 37.506365569119566 1 0 0
836 8 1 2.676936969320015 9.606409090525757 26.505736024913475 0 0 1
5551 46 1 0.8141877982365928 20.941785883131082 41.391489674109344 0 0 0
1201 13 1 15.606596787561175 15.897091569848152 37.066059099642644 0 0 0
616 16 1 14.936313876352727 7.6220257425428395 36.220968432475956 0 0 0
617 16 1 15.385173725213624 7.194447593601432 37.57253377871948 0 0 0
2434 64 1 17.684861024484217 6.99388862637598 29.154315054586444 0 0 1
2151 56 1 15.502604599949258 5.362661698710859 32.26355152957929 0 0 0
620 9 1 9.164392234023161 9.860880824209014 34.25475562843564 0 0 0
621 9 1 9.466166017196771 9.475409441283714 35.6989537526362 0 0 0
622 9 1 10.701525642898467 10.118229194655946 36.372596042326045 0 0 0
623 9 1 11.08062125993749 9.383622043759427 37.71265205210737 0 0 0
624 9 1 12.054679132222732 10.138755867635082 38.57272575367026 0 0 0
625 9 1 12.739672021326813 9.338664330262473 39.67196678079563 0 0 0
626 9 1 13.78256867328481 10.128643322194113 40.50475189132231 0 0 0
2145 56 1 11.21319065990767 5.612111235416298 26.111254117228935 0 0 0
2972 28 1 13.580271785530975 13.707915597221564 29.078896768021636 0 0 1
1062 12 1 8.910076139851716 12.207994623288196 28.286391258684322 0 0 1
7051 54 1 8.13853138490009 12.209586039760797 39.10749084563664 0 0 0
84 4 1 17.825847718260267 3.4077178438840376 40.53232396126663 0 0 0
555 50 1 10.214296927694122 7.505076155103953 30.116055087165364 0 0 1
4797 42 1 0.7198656873506954 12.484952833699039 41.24675647400484 1 0 0
4798 42 1 1.2483699454221533 11.69516093836604 42.43755565299515 1 0 0
6790 23 1 10.290807269478858 7.180934975991295 42.76409833810507 0 0 0
7829 60 1 2.7927173629905937 20.27003299530376 31.932879405584814 0 0 0
838 9 1 4.338516286445455 9.349064175122711 28.368646550256397 0 0 0
839 9 1 4.593088046536194 9.067515674703078 29.8712457465967 0 0 0
840 9 1 5.872936928090816 9.67198872448023 30.40342323793505 0 0 0
841 9 1 6.1256718173843465 9.275889064151 31.793947055820652 0 0 0
842 9 1 7.393938241889021 9.918316535018278 32.44632754502278 0 0 0
843 9 1 7.6709859764827115 9.473971241786785 33.91132482735854 0 0 0
844 10 1 13.363033160797013 12.026557853434172 34.331256071375876 0 0 0
845 10 1 14.306577412604817 11.404748872558452 35.327454200997195 0 0 0
846 10 1 14.954122862031696 12.33065835453415 36.31263471624594 0 0 0
847 10 1 15.74711031639469 11.621320020194085 37.38882758364343 0 0 0
848 10 1 16.710241144039365 12.510969908236612 38.24375181788771 0 0 0
1138 11 1 4.529771500727656 14.042700857575468 28.297755622787466 1 0 1
1919 14 1 13.551966622682327 0.38154475014520023 29.101267098357418 0 0 1
628 9 1 15.544735217933058 9.915264676816676 42.43694304113246 0 0 0
6310 63 1 7.318274950689011 2.7607007177233096 37.87305639232361 0 0 0
3908 2 1 1.9724581069932317 3.7126442291605875 43.50829204246274 1 0 0
2976 28 1 16.863201198028957 13.519897642909566 33.02294888081229 0 0 1
3222 43 1 18.02425660060192 23.51301435018547 33.84329722481135 0 0 0
7526 34 1 3.46832065258168 16.45838876751323 33.055796642239656 0 0 0
1686 19 1 14.768924940207265 22.900549456880412 41.017941808328374 0 0 0
1064 10 1 10.331837473143104 12.176880225723743 30.395228670166603 0 0 0
1065 10 1 11.059261768804351 11.322934830787286 31.497310923383274 0 0 0
1066 10 1 11.755475663897457 12.148133709876678 32.55683599570144 0 0 0
1067 10 1 12.595589898295103 11.21801273173326 33.321295509603004 0 0 0
1068 7 1 14.499212533027597 13.8273915643001 41.354343700412976 0 0 0
1069 7 1 15.170307603245774 14.682817736976757 42.44431182763569 0 0 0
7826 60 1 0.22509287380298065 20.73915817897732 29.163684055056564 1 0 0
3662 36 1 17.587605561316224 25.73506032276405 27.789498293906796 0 0 1
2443 27 1 17.624618215051736 9.815417702464899 33.82380148953627 0 0 0
8061 62 1 3.373986688740911 23.358388470144195 39.407370223952675 0 0 0
3219 43 1 15.735567245170742 22.69557207046665 30.85402587493624 0 0 0
7270 59 1 5.3576116352118675 14.580243043692697 41.08274935785322 1 0 0
2885 44 1 16.55073087796597 11.440994433674746 26.967335998669856 0 0 1
8288 63 1 12.075183510746404 25.276201811204995 43.126799235243794 0 0 0
31 19 1 5.788097629366769 0.4466363615629388 28.805875462331283 0 0 0
2148 56 1 13.808913126966683 4.7882595930011655 28.82740629562638 0 0 0
5861 29 1 1.5516086108224671 24.97551324597543 42.513169173966176 0 0 0
8277 63 1 3.270460103914587 25.707486878875 32.58000662004676 0 0 0
1242 16 1 16.159515445686395 18.302597299441302 43.55344831246326 0 0 0
7 19 1 15.269535862762762 1.0694010879891378 42.058893563787365 0 0 0
2154 56 1 18.193897979329215 4.811160171281736 35.12231796351101 0 0 0
1099 7 1 9.765739772765171 13.583798156462445 35.367624400429655 0 0 0
1100 7 1 10.235526999881166 14.376196426900531 36.61540344280684 0 0 0
1101 7 1 11.385619217833097 13.754092367028548 37.34437770114116 0 0 0
1102 7 1 11.893824708784308 14.42005985139858 38.62383089316183 0 0 0
1103 7 1 12.946037807448212 13.67979644347282 39.42227515812692 0 0 0
1104 7 1 13.50667005466634 14.5897877996083 40.49003439850898 0 0 0
1193 13 1 9.316696158098505 15.757803352818442 29.078496473464853 0 0 0
1194 13 1 10.364655950879925 16.512663977794958 29.91160106717661 0 0 0
1195 13 1 10.792718869681265 15.783917042483143 31.228794712249886 0 0 0
1196 13 1 11.83380219562145 16.489677678118344 32.02396839015209 0 0 0
1197 13 1 12.280931069570615 15.76845346488657 33.26042749265251 0 0 0
1198 13 1 13.182015118811982 16.590286968027023 34.194447554658595 0 0 0
1199 13 1 13.840427932418912 15.870156199525747 35.33711057457417 0 0 0
7611 59 1 7.773705971579466 18.61567248207838 44.11780562964522 0 0 0
5249 43 1 0.7165592789215596 16.413582026965468 40.72172186051891 1 0 0
296 4 1 8.73261735366302 3.572731704399368 28.211427853977245 0 0 0
7043 54 1 1.0481962507622216 11.952867327510297 31.442075881375967 0 0 0
2147 56 1 12.751163803882468 5.485918517615152 27.983039576598273 0 0 0
1139 11 1 5.184923401643492 13.422436344223888 29.455497986979655 1 0 1
2662 30 1 13.216024492253082 9.271947757978934 29.090273423715722 0 0 1
7605 59 1 3.004850555867099 18.296135950486935 38.3456444412792 1 0 0
7840 60 1 10.771064427842207 21.087747470231097 43.35189267927976 0 0 0
1462 18 1 16.843817435589692 20.986661486546396 38.046498018681405 0 0 0
1229 13 1 8.760713233306655 16.607598206562745 27.890118062158145 0 0 0
1230 16 1 6.844510255532467 18.04905312603162 31.286679402986188 0 0 0
1231 16 1 7.8400428714946635 18.849196240886652 32.20383742084727 0 0 0
1232 16 1 7.969325407062471 18.46596013399283 33.634367034008505 0 0 0
1233 16 1 9.321948863557925 18.76910380692816 34.35475208135381 0 0 0
1234 16 1 9.441014202950733 18.354010939059613 35.83886401662255 0 0 0
1235 16 1 10.515445886433191 19.13264282419704 36.54120767292891 0 0 0
1236 16 1 11.241265149814188 18.434814159851296 37.68530225798884 0 0 0
1237 16 1 12.425257047731435 19.070935406831648 38.440561044496256 0 0 0
1238 16 1 13.143158157767063 18.20065806863802 39.46221771256693 0 0 0
1239 16 1 14.199228875626975 19.031539924724644 40.16419875996205 0 0 0
1675 18 1 7.713348880852893 20.409464539614035 27.414093337303637 0 0 0
1141 11 1 6.9489758951916105 13.58711853918531 31.331735470026466 0 0 1
8275 63 1 1.2613490192795247 25.630825095139823 30.884340230351672 0 0 0
6826 56 1 6.539736520102375 10.373786268512328 43.43341172814539 0 0 0
615 16 1 13.748261692162087 6.945435684880749 35.51943575689522 0 0 0
6313 63 1 9.209474118261287 3.2517304763230928 41.37628321939485 0 0 0
1142 11 1 7.701441362958202 14.436234183605366 32.22587875879503 0 0 1
1061 12 1 7.888643158358272 11.434330142299928 27.386986161360515 0 0 1
560 16 1 17.88901998084486 8.074086340692046 40.28717863621275 0 0 0
618 16 1 16.405150155445526 8.152533164422369 38.23311751589294 0 0 0
3439 43 1 12.610458931133694 22.70127028402973 26.801457572727617 0 0 0
1452 16 1 5.2519713487656 17.640314915714143 29.29088395802842 0 0 0
1453 16 1 6.202201042026786 18.606391464519174 29.991199899165284 0 0 0
1454 18 1 10.58297655792416 21.155826279395374 29.856160106411238 0 0 0
1455 18 1 11.068048900817764 20.44975232152022 31.113742423800076 0 0 0
1456 18 1 12.079785055910614 21.125875041790387 32.02423654128082 0 0 0
1457 18 1 12.650106694715287 20.34178161352489 33.169133338455325 0 0 0
1458 18 1 13.234290541160142 21.13841073708754 34.31557929441037 0 0 0
1459 18 1 14.239809662859304 20.204856791929554 35.07776462329642 0 0 0
1460 18 1 15.10307275798353 20.946412674331548 36.1337134943669 0 0 0
1461 18 1 16.05819375331424 20.158721534735648 37.054664951205055 0 0 0
2432 64 1 16.209197992478444 6.754029459135055 26.95887868426 0 0 1
2150 56 1 15.371400712332553 4.792147563496091 30.78162570066148 0 0 0
7536 34 1 11.410059526435985 16.97585158105111 42.997474131796764 0 0 0
3218 43 1 15.165321298412305 23.441217916133187 29.5867114054455 0 0 0
8 19 1 16.33321961520276 0.4244790699772597 42.87660769334549 0 0 0
7050 54 1 7.213698517608285 11.527099851352341 38.07683322796705 0 0 0
1070 7 1 15.836785149485971 13.87172742610045 43.55208495837374 0 0 0
7838 60 1 9.078992455853582 20.97519037689699 41.41898460535275 0 0 0
1676 18 1 8.860079506011548 21.22853762696896 28.056728473513818 0 0 0
1677 18 1 9.501566453329596 20.367554277990017 29.17823686577116 0 0 0
1678 19 1 8.182355511709053 23.101524999656377 33.20394151044308 0 0 0
1679 19 1 8.561132166780554 23.52918842432185 34.58662776302292 0 0 0
1680 19 1 9.96113027563034 23.093275477107703 34.974759459190736 0 0 0
1681 19 1 10.31147442709051 23.458554617197265 36.43677647229181 0 0 0
1682 19 1 11.665785972767894 22.9171657586035 36.8380629349292 0 0 0
1683 19 1 11.921187450898955 23.080405310909196 38.35126045295523 0 0 0
1684 19 1 13.263907325690012 22.865141538830372 38.97130542633518 0 0 0
1685 19 1 13.372389950314364 23.09287481782178 40.45239982864712 0 0 0
1918 14 1 12.947424636836146 1.332627259680318 28.09607518248291 0 0 1
8287 63 1 10.681482434804042 25.570375746113 42.62755336062749 0 0 0
1882 4 1 16.304767766308927 1.1991959957683909 31.874018524702965 0 0 0
1799 35 1 17.550813735273287 24.794870119612344 38.98388012601329 0 0 0
2433 64 1 17.4026468889439 7.43284492594862 27.657470873882932 0 0 1
7831 60 1 4.464227418919631 20.37407280826877 33.84848953056721 0 0 0
1063 10 1 9.408487485035229 11.376684660561253 29.459321139679513 0 0 0
8286 63 1 10.150917621163707 24.886033809251025 41.36121580757098 0 0 0
7049 54 1 6.1832287655647065 12.244320608643818 37.21532266354469 0 0 0
72 1 1 2.602106685327183 0.6168273197646372 26.702133647244878 0 0 1
1710 19 1 4.385582441252091 23.206800071310735 28.291282287125707 0 0 0
1711 19 1 4.561373634005385 22.56355063137435 29.58585180038748 0 0 0
1712 19 1 5.409613498970617 23.378848773869155 30.592309757724315 0 0 0
1713 19 1 6.333968573434998 22.537279047021602 31.4274043916523 0 0 0
1714 19 1 6.839145297399284 23.45192993686354 32.616380573585765 0 0 0
1794 35 1 13.367491631113477 25.540605865552415 34.04041632282075 0 0 0
2925 13 1 18.411692850635333 13.795210166552078 34.99998232356976 0 0 0
2134 24 1 18.356867196140524 2.661084159860036 28.90936116646386 0 0 1
1228 13 1 7.724079167642368 15.900871898580101 27.049336979997996 0 0 0
5251 43 1 2.3216254590265075 16.61685117068822 42.78032962312291 0 0 0
1833 4 1 18.262427711263694 0.4943677230527895 35.21166458732381 0 0 0
1800 35 1 17.97446140381923 25.586648014151365 40.271766383202845 0 0 0
1240 16 1 14.705422822290082 18.31821626349693 41.41050287879594 0 0 0
7533 34 1 8.88093947463164 15.969669936413043 40.179195607045024 0 0 0
2149 56 1 14.371500539669674 5.608574909977723 29.97867728252803 0 0 0
2152 56 1 16.68526849441958 4.707349445539009 33.02845314964633 0 0 0
6823 56 1 3.8761227428731724 9.696334835511006 40.4959313026234 0 0 0
6528 54 1 5.8594724918520305 5.160385386181694 42.36659088012841 0 0 0
1826 35 1 9.556765667666761 24.264480490118363 28.963905945598764 0 0 0
1827 35 1 9.94592405202657 25.031793584021983 30.245300789079515 0 0 0
1828 35 1 11.036082124380815 24.42935571888839 31.083385266493483 0 0 0
1829 35 1 11.62090962418504 25.440756458707494 32.14632477060151 0 0 0
1830 35 1 12.675004048065361 24.733235519540536 32.876395923794526 0 0 0
2970 28 1 11.998581607133632 13.836534401370459 27.328470554246717 0 0 1
297 4 1 9.595208629704548 2.6908863160943057 29.16453362665334 0 0 0
7054 54 1 10.442145716871272 11.660035079574568 42.1356019437432 0 0 0
1451 16 1 4.224403061940504 18.443049944422945 28.45533583252634 0 0 0
3220 43 1 16.846454522681462 23.411873638152382 31.578344739773858 0 0 0
7610 59 1 6.495491955728254 19.15177363710156 43.51275135643988 0 0 0
1796 35 1 14.583427396981547 25.19385538933729 36.29224896520044 0 0 0
5252 43 1 2.5439163782603593 16.374229709820888 44.33059091133944 0 0 0
6529 54 1 6.435149191959189 5.861070687084737 43.66823030350818 0 0 0
1140 11 1 6.328453757801433 14.21716273506861 30.10534427545801 0 0 1
516 7 1 3.0321709666509 4.687632267809352 27.81500393150798 0 0 0
7529 34 1 5.825448393910795 15.573210151178749 36.17313255042539 0 0 0
7534 34 1 9.509969045667331 16.847667868157004 41.14703755207119 0 0 0
7268 59 1 3.5291746286999293 14.678166273391858 39.09277402883992 1 0 0
619 16 1 16.743330604378237 7.453755178592226 39.57523559469905 0 0 0
6522 54 1 1.0622261192083446 4.9776879001923415 36.35403045696603 1 0 0
6525 54 1 3.0228800110066807 5.699005699468343 39.724782085720335 0 0 0
6779 23 1 1.8941495205657972 7.720708614265431 31.799145887619808 0 0 0
8059 62 1 1.9743386339537956 23.370347370281245 37.42627487763404 0 0 0
1687 19 1 14.826803225276297 22.886927980450363 42.51876804179079 0 0 0
3059 31 1 18.49676025732872 18.313753370034924 34.53249724656082 0 0 0
7044 54 1 2.3988739858225254 11.452411530524357 31.88153631157467 0 0 0
1463 18 1 17.447903713164735 20.235628669895547 39.1854385475724 0 0 0
2886 44 1 17.317926458076062 12.32481812631278 27.983298215844727 0 0 1
2974 28 1 15.038052724711514 13.521575619888559 31.25628801287963 0 0 1
1880 4 1 14.575282288922313 1.1355239332830076 29.956954361293686 0 0 0
1136 11 1 2.6845401838461105 14.204018988272974 26.538540262392303 1 0 1
1881 4 1 15.357011409755279 0.30857784165775237 31.028796117049914 0 0 0
2442 27 1 16.498649897534676 9.162933523234292 33.03748542306019 0 0 0
2660 30 1 11.910088990186107 9.456285064872755 26.915375482526972 0 0 1
3128 32 1 17.121135871509793 20.290330653140803 26.486312580341085 0 0 0
6082 9 1 4.117128345679559 0.5132061204863115 40.07291726261312 0 0 0
7045 54 1 2.7708095523930822 11.917139860425683 33.31257836520159 0 0 0
7042 54 1 0.5849836299836084 11.300988840035288 30.09811899586456 1 0 0
3051 31 1 12.393406660740625 18.157640608704096 26.53247412538327 0 0 0
2131 24 1 15.596010319110114 3.282821626384753 26.104245553005576 0 0 1
7056 54 1 11.959908555571463 11.553283584611764 44.13593771057577 0 0 0
2665 27 1 16.04152531002023 9.752774216907628 31.719925859904734 0 0 0
1202 13 1 16.21683899622008 16.688256176992294 38.313617530187884 0 0 0
1917 14 1 11.986556378545952 0.5776178252380666 27.174666694247332 0 0 1
6085 9 1 6.531963159820549 1.4718825402869 42.87391650661969 0 0 0
7055 54 1 11.143203858696731 12.44701244537261 43.222251240919796 0 0 0
6083 9 1 4.860848921552399 1.4560628766111183 41.00865347527288 0 0 0
1071 7 1 16.7917513909967 14.781286008726829 44.326412663936964 0 0 0
6822 56 1 3.429059077104721 10.209812732954205 39.107735297059726 1 0 0
308 7 1 15.947378479828485 4.661458361695608 43.40864192526678 0 0 0
850 10 1 18.287189170298813 12.389571393294144 40.29976474162529 0 0 0
7535 34 1 10.572830351804885 16.159492126004107 42.01029777223424 0 0 0
1241 16 1 15.80780196997543 18.878215910706526 42.18675185742988 0 0 0
551 50 1 6.835508500618579 7.803950911404832 26.21187523704368 0 0 1
1832 4 1 17.854264305897136 1.2277188112649091 33.9180809648507 0 0 0
3907 2 1 1.419919732368931 2.7911117362303273 42.43473952477113 1 0 0
6084 9 1 6.060497777440651 0.7187564003776092 41.639770279306376 0 0 0
629 9 1 15.859730525747095 9.368617728998606 43.85764655159082 0 0 0
851 10 1 18.772199203426318 11.665184093968127 41.44297210363945 0 0 0
3013 29 1 16.99042183014964 16.217134215943272 27.120871420051902 0 0 0
1797 35 1 15.948194677742931 24.96587191797458 36.96591158492104 0 0 0
3052 31 1 12.91567004280089 19.06741280919859 27.56310693539421 0 0 0
3053 31 1 13.834232822937839 18.280161689283847 28.546508207167825 0 0 0
8279 63 1 4.775114615155305 25.702252462450527 34.48924103039712 0 0 0
7269 59 1 4.280701817084072 13.939916261217446 40.21910607693132 1 0 0
1204 13 1 18.15747825634895 16.759458319915023 40.040053869438175 0 0 0
3056 31 1 15.80216720312892 19.066199192050146 31.80223653344688 0 0 0
6316 63 1 12.040597720444179 2.7126794906277762 44.002003432633344 0 0 0
515 20 1 2.4588778233234305 5.493095104744186 26.627495185008488 0 0 1
1831 4 1 16.578306479710065 0.6545380737955704 33.25815399800377 0 0 0
1137 11 1 3.368913514927891 13.355255173641003 27.6420046716413 1 0 1
6315 63 1 10.92394031473081 3.4108644925355076 43.158921544798304 0 0 0
2146 56 1 12.349177698825695 4.802687821652513 26.7006500342862 0 0 0
7834 60 1 6.203708484144095 20.848842247903978 37.37065957823096 0 0 0
8057 62 1 0.5446505540314264 23.229591905629793 35.288398120218176 0 0 0
6789 23 1 9.792643588410458 8.020091990233388 41.535632140818606 0 0 0
7265 59 1 1.2273292697104177 13.590045147917042 36.21320609457929 1 0 0
627 9 1 14.451209555791978 9.267697753182533 41.62429536608143 0 0 0
6788 23 1 8.50564165038701 7.470992258107227 41.00948092873563 0 0 0
7052 54 1 8.67014772858899 11.436459525508317 40.28829780787092 0 0 0
2133 24 1 17.233210694788404 3.3820899405117903 28.109816504384266 0 0 1
1098 7 1 8.8492870298495 14.415596184681178 34.4870633795754 0 0 0
8062 62 1 4.417980498221469 22.635625890310706 40.23196327717057 0 0 0
7827 60 1 1.4043719885816546 20.129635494098128 29.873318764644882 0 0 0
1200 13 1 14.399656373011728 16.629701162831353 36.54216107986597 0 0 0
6777 23 1 0.25143433407648796 7.393487448538035 29.95744974237404 0 0 0
6311 63 1 7.586357300247279 3.3628266035847316 39.26084069412384 0 0 0
6530 54 1 7.418377054038277 4.965602903977692 44.37943737974694 0 0 0
559 50 1 13.375728964776474 7.481077440019647 34.09426136632919 0 0 1
3216 43 1 13.942647408828469 23.17164529829868 27.47633334571091 0 0 0
7048 54 1 5.730769365399434 11.677086745471048 35.89821999136305 0 0 0
7532 34 1 7.7945440311393845 16.623303666204343 39.34495419804087 0 0 0
8285 63 1 9.199217140930767 25.712647710660526 40.48237012029278 0 0 0
307 7 1 14.928868412719078 5.50219254692754 42.666257853084325 0 0 0
6314 63 1 10.4572317206768 2.6973148173089574 41.960582153963834 0 0 0
7830 60 1 3.2542422286445034 21.047438731261252 33.18574060168796 0 0 0
7833 60 1 5.854882690382508 20.38088463592362 35.971967050342606 0 0 0
3057 31 1 16.79606833313072 18.296060231096202 32.683545247327885 0 0 0
1464 18 1 18.192713874073657 21.12561263467879 40.139004916429236 0 0 0
306 7 1 14.433189352526794 4.903687745207301 41.32594699046475 0 0 0
1708 19 1 2.750544953907238 23.268344963136034 26.271213717404493 0 0 0
7837 60 1 8.90451631007034 20.42552517214761 40.018725431559325 0 0 0
8284 63 1 8.466055836300594 24.853921511112052 39.46676258763238 0 0 0
294 4 1 7.016609932794835 3.416884362160079 26.301340662202445 0 0 0
7537 34 1 12.079089580268809 16.020142467063753 44.07215210427402 0 0 0
7528 34 1 5.1045031728919295 16.38753760307319 35.08567930820517 0 0 0
7531 34 1 7.328545355627415 15.742388145630676 38.24828160675082 0 0 0
7053 54 1 9.355946680950398 12.31828267037674 41.29636308265029 0 0 0
6309 63 1 6.015999636088118 3.2490492059951523 37.36698619579941 0 0 0
2971 28 1 13.306399136314424 14.426998413526459 27.814348179523126 0 0 1
1795 35 1 14.440795538384336 24.788188940300024 34.85876445765312 0 0 0
2978 29 1 18.308220193905218 16.048971159667648 29.337392816435866 0 0 0
7047 54 1 4.381591693219853 11.987693588487666 35.24099234128447 0 0 0
8065 62 1 6.6928227723684355 23.803544070023822 43.281968169192474 0 0 0
6524 54 1 2.5156611893641987 5.154752883245539 38.39263883452689 1 0 0
8282 63 1 6.781901065492562 24.985021153133918 37.66274373536507 0 0 0
7530 34 1 6.197624069804602 16.38136664238119 37.435319447454276 0 0 0
8283 63 1 7.690223300154395 25.762519225693037 38.5692041985235 0 0 0
5860 29 1 0.5935279894597378 25.831243466395424 41.65206156169544 0 0 0
7266 59 1 1.9099913105788269 14.507421050517838 37.18006343597921 1 0 0
6821 56 1 2.451847657881335 9.298453661862688 38.34874630454405 1 0 0
6080 9 1 2.6351743110589667 0.4549101354615398 38.04529716619011 0 0 0
3129 32 1 17.78187411283658 21.191297070572325 27.544814172939454 0 0 0
7609 59 1 6.271520442868231 18.641538876289843 42.11899627676718 0 0 0
7841 60 1 12.075599974827341 20.52413413666349 43.94814117985637 0 0 0
849 10 1 17.38001908000277 11.66235544282617 39.32022019512104 0 0 0
6825 56 1 5.359295327358134 9.644368351609245 42.6709269499143 0 0 0
6824 56 1 4.861961254184075 10.352356604519091 41.40872459837665 0 0 0
73 1 1 3.909218761444261 0.067819027047388 27.250569229460492 0 0 1
8064 62 1 5.903454947778687 22.8808221509393 42.44096020300003 0 0 0
2444 27 1 18.043243908813167 9.270370047014008 35.13309743553834 0 0 0
8276 63 1 2.3523303640562974 24.855669324363912 31.708477187893635 0 0 0
1792 21 1 7.742688380481368 24.446008519815113 27.18444426637204 0 0 1
7836 60 1 7.691352277195286 20.883922785473448 39.27863654713934 0 0 0
1450 16 1 3.487900858189707 17.53213861527366 27.530452470547395 0 0 0
5553 46 1 2.308780737044003 21.207499164812155 43.3397395805991 0 0 0
7839 60 1 10.404772214588569 20.5051872632425 42.037745292973526 0 0 0
5250 43 1 0.8338851875633662 16.519900864817373 42.255203771890464 0 0 0
6304 63 1 2.391597722990547 2.634801559318447 32.07790869026593 0 0 0
6305 63 1 2.8915725655897773 3.4177813919892537 33.28242385374464 0 0 0
6306 63 1 3.931396078961116 2.6350490322770908 34.11797123536726 0 0 0
6307 63 1 4.31907023821437 3.2914698603637564 35.45569705570913 0 0 0
6308 63 1 5.4850640459497 2.52497103076085 36.1578224747017 0 0 0
7267 59 1 2.628843008633537 13.780453057668796 38.304491786361204 1 0 0
6787 23 1 8.261639232207314 7.811664362641282 39.516050679558354 0 0 0
6078 9 1 1.1806293717036866 0.3720805033416885 36.028247349580894 0 0 0
7832 60 1 4.625324707033485 20.92251429794296 35.26814556439198 0 0 0
6312 63 1 8.69985303689319 2.6889756074455002 40.021872298976426 0 0 0
7525 34 1 2.423846023528542 15.950423825567572 32.120931521398106 0 0 0
3055 31 1 15.136338586487513 18.243750016319225 30.66572613534403 0 0 0
5552 46 1 1.3395403405505182 20.24045857457439 42.619594039194254 0 0 0
6526 54 1 4.1726712546671205 4.979359160090628 40.40540360308924 0 0 0
6527 54 1 4.633688714710027 5.675145464966496 41.62057497318662 0 0 0
4799 42 1 1.9913482484037694 12.484478646034022 43.510546282859295 1 0 0
2664 27 1 14.963133073392608 8.957148889454759 31.00829558641062 0 0 0
3661 36 1 16.861980371557767 24.95528111501472 26.70442434850852 0 0 1
557 50 1 11.7433946228515 7.619522082273125 32.094025948367204 0 0 1
6081 9 1 3.3363267141984316 1.3264302154489471 39.077568105989236 0 0 0
6778 23 1 1.280476133850899 6.766963835910098 30.86809416013911 0 0 0
8063 62 1 4.862417037977664 23.506702814581626 41.488667745702934 0 0 0
7272 59 1 6.785535745763883 14.563499944006212 43.12160401226275 0 0 0
7828 60 1 1.8255129196828994 21.03192710955132 31.02180331618416 0 0 0
8060 62 1 2.8536737594972386 22.54115361461681 38.28420541570529 0 0 0
7524 34 1 1.9126140236220603 16.79500898189398 30.97751747367004 0 0 0
7523 34 1 0.9415246261620169 15.892145897847755 30.202275534327704 0 0 0
8280 63 1 5.241168191454508 24.99565341582494 35.69285029342248 0 0 0
6079 9 1 1.636023563935146 1.2299559951835277 37.210222182094554 0 0 0
2132 24 1 16.80734119389556 2.6225761924082405 26.84986073129715 0 0 1
6780 23 1 2.323312577804364 7.049787336582679 33.09094280320768 0 0 0
6781 23 1 3.599012235290123 7.55064251369023 33.721696011000894 0 0 0
6782 23 1 3.7724290427607405 7.156857968360992 35.158756554552795 0 0 0
6783 23 1 5.105112849170841 7.703225114812691 35.695377836956474 0 0 0