LAMMPS data file via write_data, version 23 Jun 2022, timestep = 11111117

9706 atoms
2 atom types
9690 bonds
3 bond types
9674 angles
3 angle types
9658 dihedrals
3 dihedral types

0 36.89775039 xlo xhi
0 26.67072 ylo yhi
36.98115756775965 199.77044683220322 zlo zhi
0 5.1217054960313915 0 xy xz yz

Masses

1 14
2 15

Pair Coeffs # lj/cut/omp

1 0.0914 3.95
2 0.1947 3.75

Bond Coeffs # harmonic/omp

1 449.5 1.53
2 449.5 1.53
3 449.5 1.53

Angle Coeffs # harmonic/omp

1 62.0967 114
2 62.0967 114
3 62.0967 114

Dihedral Coeffs # opls/omp

1 1.411 -0.271 3.145 0
2 1.411 -0.271 3.145 0
3 1.411 -0.271 3.145 0

Atoms # molecular

1 3 1 8.12595620748291 3.428536506125621 43.66304067254022 0 0 0
2 3 1 9.490037667843378 2.7817376831770995 43.98335177399452 0 0 0
3 3 1 9.288683208139194 1.955390678981955 45.30930055339764 0 0 0
4 3 1 10.577882268709645 1.398417401102723 45.763577897330286 0 0 0
5 3 1 11.03212517876419 0.8159799379336548 47.053661056609215 0 0 0
6 3 1 12.4019820289014 0.11469261225108403 47.04699267121702 0 0 0
7 3 1 12.528138779769595 26.107336204355278 48.445585816899836 0 -1 0
3175 21 1 16.01315401523032 9.702339152527486 36.98517812380351 0 0 0
3263 48 1 15.675000109398681 10.772474362674684 41.24490067002152 0 0 0
4371 26 1 14.043950136340996 20.601280062818876 38.971816533426235 0 0 1
685 55 1 18.545227505961144 3.5928487621444805 50.060041202177985 0 0 0
2040 41 1 9.222643084326064 23.052077346443166 38.95662997483167 0 0 0
1653 21 1 17.00047797810991 14.978661688278878 47.236229333991005 0 0 0
2260 14 1 3.1054345553266303 22.867476639501675 37.41926555183873 0 0 0
7867 52 1 3.2535306235290484 8.52076500354646 47.791670571434224 0 0 0
220 3 1 4.630329243285165 1.7180917522684553 39.055002961332214 0 0 0
7429 63 1 7.185820960061096 0.5298020670383269 52.6279526764853 0 0 0
9025 59 1 2.9057796330622025 21.956727641228294 47.66797043035796 0 0 0
6435 14 1 1.1166247902779654 19.7079658212785 50.80650924988302 0 0 0
221 3 1 5.124466231195773 2.9081162148342656 39.97756652193232 0 0 0
222 3 1 6.460951259409037 2.7495820306035896 40.61858849009349 0 0 0
223 3 1 6.672123536803614 3.954994115163362 41.594759336084735 0 0 0
224 3 1 8.016818807120627 3.9131314217472957 42.24200270394036 0 0 0
225 29 1 10.106860909053244 6.524473683695705 40.321326170605346 0 0 0
226 29 1 11.421206091610104 6.111468733331026 40.86813594455745 0 0 0
227 29 1 11.30733632059457 4.8636091753660295 41.701615683203165 0 0 0
228 29 1 12.630767021586578 4.603654699574499 42.42587412366566 0 0 0
229 29 1 12.750264961019692 3.481895479060728 43.38199727226235 0 0 0
230 29 1 13.946344430644022 3.68684723223336 44.16935845388822 0 0 0
231 29 1 14.55323040345431 2.428478828613011 44.76341543795614 0 0 0
232 29 1 15.806178303365265 2.436421437848309 45.638978961080895 0 0 0
1337 9 1 7.752916686481383 12.972904920871448 37.44424347783284 0 0 1
2042 41 1 10.963945447982393 24.210912329826602 40.462542519871775 0 0 0
2501 49 1 17.216863975851634 0.2898236004117775 42.4196625097702 0 0 0
670 51 1 3.1617512663058607 5.233358547720503 37.576752813973044 0 0 0
461 51 1 14.008534801078763 2.8285636533617415 49.912965152606574 0 0 0
4372 27 1 14.83825361387829 20.853659890426 40.21422186446628 0 0 0
5087 35 1 0.907200700158713 6.556913451626128 49.5770382336176 1 0 0
235 29 1 17.606952609017064 0.09179755311280807 48.03700405207332 0 0 0
3266 48 1 17.624703514263615 8.844650165096704 43.75296022465922 0 0 0
912 5 1 16.816180502272605 5.630704758693634 52.525814195290536 0 0 0
449 51 1 4.797120340339743 7.299482061554355 40.1122203370264 0 0 0
450 51 1 6.288625912156779 7.194095069392133 40.446271209703184 0 0 0
451 51 1 6.609998258115111 8.360889176470847 41.509525224523294 0 0 0
452 51 1 7.934961495828662 8.27222421145208 42.278908951692586 0 0 0
453 51 1 8.07913979918441 7.14189847623005 43.239211691730034 0 0 0
454 51 1 9.403384752463152 7.10637737235438 43.87152536180099 0 0 0
455 51 1 9.549382403677905 6.0481506997424255 45.005917082441705 0 0 0
456 51 1 10.957289987477868 5.799100926415841 45.416155991746955 0 0 0
457 51 1 11.050490500016663 5.045992404064272 46.788467492194556 0 0 0
458 51 1 12.465589420683532 4.59272550640199 47.061235371656025 0 0 0
459 51 1 12.711152867331922 3.6852840684529866 48.29158621945156 0 0 0
460 51 1 14.08858600387956 3.8579406191450905 48.90070967217774 0 0 0
2263 14 1 5.254477366754657 24.869014280627916 40.065062344593606 0 0 0
3924 28 1 16.31655569179931 15.334315609936692 40.87753459733073 0 0 0
218 3 1 3.0607780347729965 0.2747889912697131 37.48385901178419 0 0 0
9641 64 1 6.348146381722828 26.652700430281488 46.463214170854776 0 0 0
5091 35 1 3.819359896524175 3.6905694572474856 52.54288640960681 1 0 0
9635 64 1 1.9145620051207048 0.07036076199102999 41.84887690736414 0 1 0
8413 58 1 0.42054564198381894 11.48161777806686 39.37664850707275 1 0 0
2793 18 1 16.81487006570335 5.360453521486915 37.449994040548134 0 0 0
447 29 1 9.016283488862976 5.610470127893423 38.610977249049306 0 0 0
2498 49 1 14.763171672122262 2.519663048287467 40.615163490857 0 0 0
672 51 1 4.5756605579973675 6.271326415232905 39.10851106225232 0 0 0
8801 58 1 1.2695725519497432 17.324939970817283 40.471074603890074 0 0 0
674 55 1 11.29200655014346 10.670669152556206 40.83929676873958 0 0 0
675 55 1 11.22426019750463 9.43400657185308 41.754143774646025 0 0 0
676 55 1 12.596445541398248 9.374795082672144 42.512761973257945 0 0 0
677 55 1 12.969515973050079 8.067245171801753 43.019814500847005 0 0 0
678 55 1 13.95731005181189 8.349177355793474 44.18307450084187 0 0 0
679 55 1 14.278543469498793 7.040581581692656 44.86510655896042 0 0 0
680 55 1 15.459936768282788 7.272042863096877 45.80129416431417 0 0 0
681 55 1 15.792794348275654 6.0019945615984565 46.54560343388445 0 0 0
682 55 1 16.707603696516372 6.264857714346116 47.73852617817518 0 0 0
4143 39 1 16.54307044876599 18.33045285448432 37.569335919910245 0 0 1
7865 52 1 1.5907404034492814 7.271619562704625 46.179118126434204 0 0 0
5546 34 1 2.9682762156846287 9.712554617203624 52.689952192148596 0 0 0
8425 58 1 9.485218901218936 11.767421870719119 49.36775849799916 0 0 0
9345 63 1 2.6776339717501987 26.482737345435158 46.15112841759985 0 0 0
7871 52 1 6.031243056833327 6.344211926158629 51.074627953649205 0 0 0
2267 15 1 9.520008524541115 0.7049260155377552 38.965038435652744 0 1 0
2489 15 1 7.979455447662613 0.024777701420422488 37.31852143165139 0 1 0
897 5 1 5.201695731977483 11.535198178048951 40.363684921377065 0 0 0
898 5 1 6.586599946401068 12.015311882527286 40.772803619841646 0 0 0
899 5 1 6.8191299510341326 13.038594808421601 41.94040205245002 0 0 0
900 5 1 8.207204514943976 12.99958828318573 42.657824309022615 0 0 0
901 5 1 8.5265330893838 11.742501992600191 43.42275347709905 0 0 0
902 5 1 9.622469801859134 11.548746436723249 44.43169824934044 0 0 0
903 5 1 9.760918411319636 10.251362204682367 45.091798673499035 0 0 0
904 5 1 10.925778984713574 10.480230675809343 45.96564496790184 0 0 0
905 5 1 11.12956486004155 9.176642123881441 46.82182725658868 0 0 0
906 5 1 12.2590712726117 9.297351722125528 47.84725969938275 0 0 0
907 5 1 12.483751310978533 8.014386147137657 48.59101175626589 0 0 0
908 5 1 13.886463831840805 8.087190036852007 49.09820804614391 0 0 0
2497 49 1 14.161336770025285 2.8055152942149286 39.22258260642211 0 0 0
910 5 1 15.485039109965422 6.933254174249528 50.86895476007107 0 0 0
3094 20 1 12.784037423179882 8.73534996060778 37.62342504726883 0 0 0
7639 51 1 2.9465209716111844 5.345428879466454 42.12171712789997 0 0 0
2877 20 1 17.445662143874866 4.677344523949023 44.06345381666413 0 0 0
446 29 1 8.40053002055095 4.369741054085088 38.08223685443453 0 0 0
7651 51 1 11.87750680074154 0.3177391874373945 51.79918369011513 0 0 0
2280 15 1 18.572499469878917 21.232150886928135 49.69001009794434 0 0 0
8802 58 1 1.5930262318485184 17.70336915392046 41.98958478737316 0 0 0
8816 58 1 11.855686394222973 13.862434212287917 52.7425680193445 0 0 0
1120 5 1 5.062006493196868 10.451875120869751 39.20988165692416 0 0 0
1121 19 1 14.25920346354502 12.695412791911298 43.85459229769873 0 0 0
1122 19 1 14.329612293321109 11.509430847570382 44.67766485704948 0 0 0
1123 19 1 15.633253879362924 11.278069245061252 45.41844050986326 0 0 0
1124 19 1 15.615045052264781 10.366445175313135 46.5345434627015 0 0 0
1125 19 1 16.931961165312163 10.49897035430541 47.35760890543282 0 0 0
1126 19 1 16.998563151928256 9.493716177526645 48.36044981269341 0 0 0
4611 29 1 12.74816726373011 26.44440801090816 37.87439558904298 0 0 0
4144 39 1 17.838801024356947 17.642019529077054 37.976247545732996 0 0 1
3093 33 1 12.040056237520176 7.417314467569337 37.30788455455247 0 0 1
2875 20 1 16.14240964786883 5.755310163344432 42.24072986671463 0 0 0
8032 54 1 10.757808777950201 5.84215718886048 51.41977808992522 0 0 0
233 29 1 16.085314357035344 1.3699252507245991 46.62576194737329 0 0 0
1738 11 1 15.208894248400181 15.752276599788232 50.51584308204362 0 0 0
3704 28 1 18.557141999549962 12.442803079361465 44.27788302805208 0 0 0
7866 52 1 2.69032683490022 8.336562623666907 46.37733734059697 0 0 0
8243 55 1 1.5991386150612295 11.79816006332906 46.355009046545874 1 0 0
1343 19 1 12.716882818552994 14.01939070842719 42.091710303637996 0 0 0
1344 19 1 12.934726904840625 12.805872283361234 43.05709566728423 0 0 0
1345 10 1 7.669350994921807 16.282601679298356 43.17466663515239 0 0 0
1346 10 1 9.090301414505467 16.173930467933435 43.7708399536105 0 0 0
1347 10 1 9.44713219128778 15.218258549648928 44.83789694116045 0 0 0
1348 10 1 10.930710653180903 15.152399489787484 44.94733138391648 0 0 0
1349 10 1 11.157127470799509 14.163244708286499 46.064829488061676 0 0 0
1350 10 1 12.498355934196889 13.978532759831584 46.71505324940074 0 0 0
1351 10 1 12.208690765342885 12.928603842284739 47.784123161093 0 0 0
1352 10 1 13.678849323860495 12.610603329316785 48.210676229879326 0 0 0
1353 10 1 13.94236454462573 11.534651588023502 49.170843141059606 0 0 0
1354 10 1 15.167326006581288 11.851236008142047 49.978821489123476 0 0 0
1355 10 1 15.035327403092815 10.890562614627823 51.17604509554646 0 0 0
1356 10 1 16.22220378955154 10.371983681157346 51.87752470133176 0 0 0
9024 59 1 2.686502706389557 21.995782968412882 46.188801709500204 0 0 0
2490 15 1 8.153884432745539 1.0310678966706508 38.41081675634079 0 1 0
1565 10 1 4.961342877111709 16.04065312228144 39.75775674784331 0 0 0
8415 58 1 1.8951916026292024 12.616955727691314 41.12786945272446 0 0 0
7430 63 1 8.320511528898276 26.175061740692463 52.7442182953683 0 -1 0
6817 46 1 1.2381065345994937 23.876373874561416 50.503495508293824 1 0 0
4375 28 1 17.195388062054356 21.811568553065708 37.62999711906325 0 0 0
2261 14 1 3.47103106735138 23.687701989056517 38.63850109572416 0 0 0
7420 63 1 0.6677725048288199 2.762284882376028 44.714883614569644 0 0 0
1567 10 1 6.372393177580229 17.29049367951503 41.3347634374004 0 0 0
1568 10 1 7.67686185889201 17.29990109677396 42.018294119277705 0 0 0
1648 21 1 12.860839920375815 17.426781100574658 42.824467082514936 0 0 0
1649 21 1 14.165021670062279 17.35379631324823 43.629333138733216 0 0 0
1650 21 1 14.211140541317182 16.21721609440061 44.557960518626686 0 0 0
1651 21 1 15.453256174854321 16.17284262394743 45.498634359048566 0 0 0
1652 21 1 15.869901283705728 14.885160792073684 46.31676053136943 0 0 0
9022 59 1 1.1416411516791625 20.45721796425065 44.6442014050972 0 0 0
2503 49 1 18.581561901968854 25.83489505911005 43.94696686736217 0 -1 0
1724 21 1 11.036533986299467 19.568713377941183 40.62863940901201 0 0 0
4369 26 1 12.310630061879325 21.78801602021069 37.39930480991227 0 0 1
7197 40 1 1.0872431373237244 1.7490201738400302 50.57719835937174 1 1 0
9347 63 1 3.901210775059005 25.147629533282185 48.069423342547445 0 0 0
3920 24 1 12.53138959070067 17.346860979311142 38.27587006198748 0 0 1
2499 49 1 15.682127185701978 1.4215858589299248 40.92315540641585 0 0 0
2262 14 1 4.99396031422662 23.959648432335193 38.77949241986229 0 0 0
10 3 1 15.377078406754155 24.897941837851803 50.428058524101054 0 -1 0
9637 64 1 3.277694700339202 1.5467003862598885 43.30511875856089 0 1 0
1725 21 1 11.294230629338704 18.41982256220801 41.57325641837598 0 0 0
1726 21 1 12.64138783641716 18.690576174174964 42.079921458297235 0 0 0
1727 11 1 6.8650328000616225 21.971717863646585 41.38272750276077 0 0 0
1728 11 1 8.21303421936326 21.725248913680833 42.081885486903744 0 0 0
1729 11 1 7.955004311473462 20.80193824625614 43.30922305147315 0 0 0
1730 11 1 9.32788280836165 20.281860221727467 43.735921560818305 0 0 0
1731 11 1 9.446084135329809 19.41177135571979 44.925780748616816 0 0 0
1732 11 1 10.92750774394702 19.24315367531421 45.338653725852964 0 0 0
1733 11 1 11.219921565201242 18.22713198588275 46.514411084074425 0 0 0
1734 11 1 12.558555865542736 18.05788644359506 46.94224330200967 0 0 0
1735 11 1 12.599146601765854 17.01912286527478 48.01833391708649 0 0 0
9269 61 1 10.664500240658803 19.070015448112784 51.306924190975096 0 0 0
3097 21 1 17.103504380146354 9.477560365313865 38.047989440860796 0 0 0
4534 29 1 14.575297419916298 25.113720503983533 39.169585562648884 0 0 0
9256 61 1 1.2732779936937613 21.819835718050605 40.57758294495692 0 0 0
448 29 1 9.856598210752548 5.151869912290426 39.87579427454782 0 0 0
8246 55 1 3.994964084272888 11.576992542789473 48.008067940950674 0 0 0
9644 64 1 9.252717542177452 24.963947067299525 48.46028182602234 0 0 0
8247 55 1 4.50549719470044 11.560965169657889 49.489233600340434 0 0 0
1119 5 1 3.912553916335406 10.652143707867664 38.34217826190802 0 0 0
1340 19 1 9.562796356911063 15.235112107645023 40.07781595266341 0 0 0
7649 51 1 10.085464332682182 1.297713081064533 50.29122981772587 0 0 0
1803 11 1 4.463134553318511 19.689648747426006 39.3262331096179 0 0 0
1804 11 1 5.445679651009057 20.945862082239824 39.69986672777981 0 0 0
1805 11 1 6.469541980693664 20.6822571759671 40.717399030049165 0 0 0
1964 41 1 11.139472655018519 22.885268166011475 41.24203915375984 0 0 0
1965 41 1 12.324488153019123 23.00612456875493 42.19926839000768 0 0 0
1966 41 1 12.514276230062663 21.824303362454792 43.14189341822356 0 0 0
1967 41 1 13.7767889966835 21.920862361860053 44.00999220417132 0 0 0
1968 41 1 14.041204346287083 20.631568307258647 44.85438732555881 0 0 0
1969 41 1 15.404885688613412 20.71849766989074 45.55981526744802 0 0 0
1970 41 1 15.699625867084897 19.428203114178025 46.241149159338526 0 0 0
1971 41 1 16.73264933194348 19.453791087267646 47.36957167260864 0 0 0
1972 41 1 16.917793121907955 18.2605232400972 48.22298320653329 0 0 0
4844 2 1 16.79971938451137 0.8125046607644051 37.36149760353869 0 1 1
7421 63 1 1.3358234391217914 2.8356785529928707 46.148654697395116 0 0 0
5993 34 1 2.5796112164831855 13.843953759119497 52.348502012353194 0 0 0
8428 58 1 11.184296268884404 9.2922283258982 51.31668209925802 0 0 0
5090 35 1 2.964687004926175 4.8658820796948525 52.22763171640533 1 0 0
8426 58 1 9.709793039759123 10.366506371161497 49.90843441381641 0 0 0
1656 21 1 18.748440246063822 12.605147260263442 49.789343808858234 0 0 0
8814 58 1 10.557726984638261 14.952316446932508 50.992944657404365 0 0 0
7427 63 1 5.7226610968152345 1.5758457176394611 50.98131796927942 0 0 0
2043 14 1 7.9724446445738995 25.601481942594084 43.15265981485767 0 0 0
2044 14 1 9.356080565681198 25.055970841227868 43.66931634947679 0 0 0
2045 14 1 9.519686585259503 23.983915027695936 44.68180052687585 0 0 0
2046 14 1 10.865231031728031 24.113198659956318 45.13189517604883 0 0 0
2047 14 1 11.077813471313643 22.8842941416944 46.052307016476796 0 0 0
2048 14 1 12.294793993523223 23.034666021681975 46.96698884116353 0 0 0
2049 14 1 12.470464046708802 21.873041139483686 48.05393795854266 0 0 0
2050 14 1 13.675217497184605 21.982344386248073 48.91004888698673 0 0 0
2051 14 1 14.04101892813579 20.65700368230596 49.40282458460995 0 0 0
2052 14 1 15.092974467472802 20.71753883225773 50.407816937481684 0 0 0
2053 14 1 15.256054702270234 19.280048682766086 50.92878015586319 0 0 0
8817 58 1 12.757143721685248 12.720690335782098 53.07580122235218 0 0 0
7198 40 1 2.1457769421114037 0.8607998263217308 50.95793492613494 1 1 0
2494 49 1 12.017356749143607 2.9961106261922974 37.52001062295584 0 0 0
4537 29 1 16.134330107700862 23.32332063169427 42.19811065153151 0 0 0
9640 64 1 6.43218357070653 0.6961689844693232 45.08512318192253 0 1 0
7200 40 1 3.2593389369217642 26.15797484489438 52.61366468988692 1 0 0
4610 29 1 12.126591970818328 25.19768226711006 37.21076069826641 0 0 0
9023 59 1 1.8521206568198836 20.754737019700535 46.02675086172171 0 0 0
9342 63 1 0.44282015919385126 23.854958242031454 44.25839322127391 0 0 0
2264 14 1 6.671056221672777 25.364301675854374 40.201620647625745 0 0 0
2265 14 1 6.655722540542183 26.44511004436471 41.2793670225023 0 0 0
2266 14 1 8.013909497552351 26.498309908048768 41.963537984738444 0 0 0
3096 20 1 14.14906779255136 7.437056394480058 39.04147158268136 0 0 0
8813 58 1 10.093277233415877 15.03338422588398 49.56233209976082 0 0 0
2269 15 1 11.156055326019988 1.91738686978647 40.71409450453313 0 1 0
2270 15 1 11.21961005532917 1.0641441877962923 41.94444877311535 0 1 0
2271 15 1 12.542824694481277 0.3384084028924802 42.10563707991258 0 1 0
2272 15 1 12.597283796710359 26.213225806801688 43.339570501520946 0 0 0
2273 15 1 13.962895675489953 25.852889040092485 43.81308791595784 0 0 0
2274 15 1 14.247064086341785 25.015801803972845 45.117782470752694 0 0 0
2275 15 1 15.65991846759369 24.66266312896018 45.55167846895164 0 0 0
2276 15 1 15.600634402228371 23.85185291293164 46.761914249232746 0 0 0
2277 15 1 17.016683964372298 23.583827416243572 46.995312427185695 0 0 0
9638 64 1 4.736803160177412 1.4012255065957953 43.431163260919554 0 1 0
1338 9 1 7.91370453621579 14.267262911609352 38.20431534657874 0 0 1
3922 24 1 14.700771101545488 16.068491809360317 39.16738895968527 0 0 1
8250 55 1 6.897833270633206 9.516742923577743 51.2218416330227 0 0 0
673 55 1 9.99673199142256 10.838335377969436 40.14299716003319 0 0 0
1564 10 1 4.397867492882078 14.809804933066175 38.98030406922319 0 0 0
234 29 1 17.28553152719632 1.4821959854441278 47.44505453447018 0 0 0
8640 57 1 5.269956149980077 15.009023000044863 49.3315848335177 0 0 0
8430 58 1 12.637289218840545 8.197073864326493 53.05467942208851 0 0 0
1740 11 1 16.818250236415118 14.82963863540293 52.12421176200169 0 0 0
8642 57 1 7.1585562868877615 14.085364081826416 51.04490375969337 0 0 0
683 55 1 17.135241143536938 4.913629374163996 48.274768015752734 0 0 0
5544 34 1 1.4505902886559177 10.879153899332486 50.84139517713553 0 0 0
7648 51 1 9.971034826687223 2.5660453814721005 49.51868036691171 0 0 0
4845 2 1 17.677354062239473 26.28764614767491 37.7141922293171 0 0 1
8245 55 1 3.600439940643348 12.880397356087707 47.568856499739844 0 0 0
896 55 1 9.652728961774418 9.70593281724427 39.18482463364394 0 0 0
7199 40 1 2.3084224844628016 0.6509281376881513 52.47158051851044 1 1 0
1566 10 1 6.060663292995239 15.987691687332964 40.68798063138715 0 0 0
9265 61 1 7.831138335457602 21.608399196400732 48.228998299540145 0 0 0
2496 49 1 13.631941552976576 4.2125539632480935 38.86628281223943 0 0 0
8242 55 1 0.9950548005089439 11.987150573030721 44.97754051113393 1 0 0
219 3 1 3.343699014338671 1.5966881886765327 38.21369684581434 0 0 0
2268 15 1 9.765147767759698 1.817838451912204 39.94400342331229 0 1 0
9636 64 1 2.915779802770497 1.1686022192675916 41.87300097164971 0 1 0
3919 24 1 12.305305458117747 16.137181958763897 37.44106190420396 0 0 1
5543 34 1 0.9856799251712731 10.60479021941635 49.46044871504081 0 0 0
8023 54 1 4.199086019664087 10.819880749188744 43.416297820705765 0 0 0
1736 11 1 13.961676895101816 16.51539381424449 48.42889529194097 0 0 0
7872 52 1 6.917514366209774 5.0987077796517095 51.1355405138543 0 0 0
9031 59 1 7.564739559420771 18.431536335152266 52.47710675301474 0 0 0
8643 57 1 7.341091829627609 13.771326996274407 52.48138950868546 0 0 0
9649 64 1 12.573712202165984 22.427205481403576 53.18822020116698 0 0 0
9 3 1 13.879534073870305 24.948325342245866 50.07850368370511 0 -1 0
7641 51 1 4.367368586274833 6.295579941710588 43.73064595933427 0 0 0
3264 48 1 16.805697687437142 10.578413496424945 42.14432019543103 0 0 0
8022 54 1 3.4620161673252454 9.486491744761459 43.31324637362084 0 0 0
5991 34 1 1.2908931071478236 15.069444780698241 50.51141609252214 0 0 0
8018 54 1 0.1285455270684654 7.107870060551491 40.28379961180375 1 0 0
6438 14 1 3.908102005540635 17.442765745638916 52.619928588007625 0 0 0
3260 48 1 13.89023854888331 12.976282679927932 38.81640270665797 0 0 0
3261 48 1 14.29768079591429 11.681398388187949 39.465292977668604 0 0 0
1646 45 1 7.613129768969687 17.395116968957627 37.41374027697946 0 0 1
9348 63 1 4.275854501132964 25.086241472877067 49.51754031588588 0 0 0
2500 49 1 16.432075882190247 1.5163053245327944 42.21980864062647 0 0 0
909 5 1 14.09929114916597 7.007060201870942 50.10909589892891 0 0 0
6437 14 1 2.669108539454607 18.300136980769345 52.35471561666794 0 0 0
9645 64 1 9.517669894550814 24.519318272215806 49.93670169117797 0 0 0
8252 55 1 8.258038187244466 8.075536242506882 52.83085066151462 0 0 0
894 55 1 8.112665170273536 8.708951210192458 37.70632908053076 0 0 0
3265 48 1 17.209583689010504 9.130082382976408 42.35019010668672 0 0 0
2873 20 1 14.74483515189946 7.177918029292773 40.43864206937377 0 0 0
9647 64 1 11.084432423840747 23.515182361030302 51.57045754314137 0 0 0
8424 58 1 8.381320617658943 11.751309120600693 48.40495035370056 0 0 0
7874 52 1 8.33082023344244 3.4904722179308174 52.537232033280056 0 0 0
684 55 1 18.253380989234923 4.884507545432864 49.34220010984336 0 0 0
1802 11 1 3.338550681098653 19.616283547041238 38.2836623427058 0 0 0
3925 28 1 16.524201493752127 15.138340642966524 42.323304760522916 0 0 0
3926 28 1 17.578446548750478 14.058345712146707 42.57056561604954 0 0 0
9346 63 1 2.842970159897114 26.12048704739738 47.6301832087662 0 0 0
9344 63 1 2.0945494208790594 25.208848741827726 45.48950363029637 0 0 0
2874 20 1 15.520972595895044 5.934941302120154 40.8821357179268 0 0 0
7870 52 1 5.529852302530005 6.17056806299689 49.61236898323116 0 0 0
4151 27 1 17.315407546397466 18.678887741982308 42.17375652840795 0 0 0
4152 27 1 17.801979588857698 18.83972747502331 43.61873645031045 0 0 0
9350 63 1 6.11930736117287 23.93457921490577 50.984600123398494 0 0 0
9255 61 1 0.5430347889946415 20.503223163678776 40.2978413136444 0 0 0
1973 41 1 18.163671915701407 18.10323671935614 48.97649260709005 0 0 0
8020 54 1 1.7890532877030723 8.26993222191494 41.74340286775947 1 0 0
7640 51 1 3.2785112484555468 5.376833752193845 43.585887641241634 0 0 0
9634 64 1 1.525772117333954 26.505612517857575 40.41931773442108 0 0 0
9028 59 1 5.528965818355228 19.595189530313043 49.38774330246144 0 0 0
8639 57 1 4.500358546683157 16.305174160548663 49.19866351447844 0 0 0
1562 10 1 2.7416660642927413 13.782809092965023 37.470525474043875 0 0 0
1722 21 1 9.459437676993216 18.364031692828345 38.90733608264619 0 0 0
1342 19 1 11.325760312871806 14.003377964019426 41.524226915085094 0 0 0
8811 58 1 8.776062948690656 16.33110538479295 47.99473262752658 0 0 0
4539 29 1 17.798140632674293 22.49280728077636 43.85712649368831 0 0 0
8429 58 1 12.13031224936139 9.477657619976927 52.43195020890515 0 0 0
4535 29 1 14.890476259604066 24.682689297272074 40.58979027191398 0 0 0
4536 29 1 16.092418264437637 23.821112596379827 40.76087388806354 0 0 0
4538 29 1 17.51118626368528 22.63847993061726 42.39567568858705 0 0 0
462 51 1 15.283315565231739 2.362061183823465 50.47369603811189 0 0 0
11 3 1 15.371573588605955 23.659181975878933 51.211038048932224 0 -1 0
7422 63 1 2.423268145935457 3.8720296679998008 46.305292336078615 0 0 0
9030 59 1 6.756393868331173 18.393754871600745 51.16826757636112 0 0 0
1801 11 1 2.860361456479335 18.323598223438157 37.7023766297054 0 0 0
7637 51 1 1.5297925793106988 4.1651519753565625 40.38533180741291 1 0 0
7864 52 1 0.6195629109290142 7.609299454698243 45.04204326547312 0 0 0
7868 52 1 4.210107720930829 7.4411119650711965 48.049998348181504 0 0 0
2039 41 1 8.082094436579816 23.203258372227303 37.896919661891026 0 0 0
3262 48 1 15.440117273659826 11.922331423830375 40.350555932676656 0 0 0
7426 63 1 5.286109799156579 1.8458230234795576 49.56674396498933 0 0 0
8249 55 1 6.079776997834687 10.80393292600479 51.09017519596333 0 0 0
5089 35 1 2.182883403119839 4.972434714249712 50.983238809823185 1 0 0
8636 57 1 2.4114282098689093 17.551249206004176 46.40039741850163 1 0 0
9264 61 1 7.31012913126668 21.720376557995333 46.89495579846833 0 0 0
7635 51 1 0.16652415653340055 2.8940233995887845 38.65583490744034 1 0 0
8033 54 1 11.895373598100779 4.816096125393989 51.793197611106166 0 0 0
9343 63 1 0.9943542182392882 25.151466878958235 44.54264077590087 0 0 0
7428 63 1 6.734797702089516 0.5565892180706236 51.20363450896158 0 0 0
9263 61 1 6.2061751067039825 22.82847981963551 46.59192506072298 0 0 0
9262 61 1 5.883598984284196 23.002151389680797 45.15745680980757 0 0 0
2502 49 1 17.574132724985024 0.26959162540569315 43.88015281492668 0 0 0
2876 20 1 17.159833955123602 4.803553297786833 42.61441151008615 0 0 0
2716 18 1 17.638778399995147 3.94073106173269 39.21136867184529 0 0 0
1737 11 1 13.999016738458772 15.729086737534715 49.62580683662439 0 0 0
9261 61 1 5.103438221061106 24.253687913478984 44.66283484227877 0 0 0
4374 27 1 16.3355479613732 19.90229829263254 42.02289240419864 0 0 0
12 3 1 16.63322165181073 23.540966423539693 52.018959356653966 0 -1 0
3701 36 1 18.129582562338108 13.314386727513853 37.76713524019911 0 0 1
9260 61 1 4.642342010696954 24.530075414764376 43.17121591679337 0 0 0
7638 51 1 1.6756593536529192 4.476191459488596 41.93625515223897 1 0 0
6818 46 1 2.0017945443515734 22.654816389502333 50.88214297256492 1 0 0
9268 61 1 10.608403556939232 19.533586508522003 49.83393949237977 0 0 0
9648 64 1 11.95025291401115 22.314583122993156 51.77903069899335 0 0 0
1127 19 1 18.3899848455521 9.162423170801583 48.941729807509674 0 0 0
9258 61 1 2.615776995972578 23.297363072529233 41.96882474758476 0 0 0
9646 64 1 10.734014113946085 23.65652567024111 50.10361643138815 0 0 0
9351 63 1 6.893853388806324 22.713627653834873 51.35065531160886 0 0 0
9639 64 1 5.132681419410395 1.446079542313542 44.826923506865256 0 1 0
7636 51 1 0.5190078798178531 2.9979134031963026 40.15805462716621 1 0 0
445 29 1 6.976124401802054 4.443875583559551 37.36928313436258 0 0 0
8423 58 1 8.411605719489812 12.897881507700495 47.39661724088801 0 0 0
5545 34 1 2.216244766910374 9.64461658152081 51.38018940197977 0 0 0
7423 63 1 2.717259435690774 4.193826204293223 47.75818298164219 0 0 0
7424 63 1 3.476495701368261 3.015435581363557 48.16133776456151 0 0 0
8808 58 1 6.241350597420436 18.711029714261027 46.2623089801774 0 0 0
9026 59 1 3.89342756652794 20.822663841434483 47.65788320958402 0 0 0
8803 58 1 2.9431917106008307 18.257849050426945 42.03926219969717 0 0 0
8806 58 1 5.071890943993161 20.011870303166457 44.55047278676999 0 0 0
9349 63 1 5.091993327550423 23.799738767824984 49.93299628021112 0 0 0
5992 34 1 2.5419558030387583 14.255040338339542 50.87112149157977 0 0 0
8641 57 1 5.8287518057428445 14.86750671096495 50.74229387003709 0 0 0
8024 54 1 5.118358982370846 10.81250281786948 44.627783530793025 0 0 0
8812 58 1 9.412326646347866 16.339238036657417 49.24991214009053 0 0 0
463 51 1 15.558894578946306 1.1574623575180738 51.34780303970557 0 0 0
7642 51 1 5.013218463456056 6.12567109893203 45.18132435858536 0 0 0
7643 51 1 5.575075673421519 4.8282512389090915 45.48705363689456 0 0 0
7644 51 1 6.5261214695356005 5.021245015140872 46.61346817666813 0 0 0
7645 51 1 7.114502567790718 3.7870046384897056 47.159642895836825 0 0 0
7646 51 1 8.346639335030618 3.9473782517617355 48.01734823200725 0 0 0
4370 26 1 13.242034944525747 21.8462879957056 38.59577211663292 0 0 1
1739 11 1 15.446813953075242 14.67903805368936 51.58230974221187 0 0 0
7425 63 1 4.505770334138217 3.0712824728456734 49.290727150362244 0 0 0
4145 39 1 18.238631221881096 17.155026232341356 39.390193608770424 0 0 1
8416 58 1 2.396077994592584 13.808022270197558 41.8331019199372 0 0 0
5088 35 1 1.8398037836406644 6.415884830692612 50.77693649082965 1 0 0
4846 2 1 18.212511149872963 26.2303058124028 39.13474569924992 0 0 1
4533 29 1 13.341324401235104 26.043478138751034 39.20399988955835 0 0 0
7650 51 1 11.36621771314376 1.591652695585518 51.00545518296872 0 0 0
1741 11 1 16.977573801525672 16.03398885988254 53.05294907205439 0 0 0
6819 46 1 2.6660838820453083 22.851892055802708 52.1405177999773 0 0 0
1723 21 1 9.683338908377875 19.62321371307285 39.83078861806987 0 0 0
8809 58 1 7.07039925698967 17.403859995273347 46.434687614110345 0 0 0
9270 61 1 11.75790723031233 18.005061959001086 51.46279631986392 0 0 0
7873 52 1 7.664182475526333 4.820840660174548 52.380317167545826 0 0 0
8805 58 1 4.294360209728194 19.959305514373728 43.22402124049628 0 0 0
671 51 1 3.199273726404364 6.363576906273422 38.50457996984368 0 0 0
1339 9 1 9.290419092057185 14.12098100611612 38.96525274040876 0 0 1
7869 52 1 4.612823406566074 7.394654510050682 49.51409474994 0 0 0
9352 63 1 7.370516640837677 22.788211229762336 52.74226071308254 0 0 0
8807 58 1 5.67614188234738 18.637073843134456 44.85068233078824 0 0 0
9266 61 1 9.219753497583902 20.825844678512432 48.16386205514473 0 0 0
9259 61 1 3.88893905848578 23.25880596342756 42.721088201060425 0 0 0
3700 36 1 16.859260453515805 14.05048386274418 37.73534518467703 0 0 1
8021 54 1 2.726858381905956 9.435874729547038 41.90021319045753 0 0 0
8248 55 1 5.433590336331832 10.483814222292777 49.738702233281 0 0 0
3923 24 1 15.106935868032274 16.07049150408756 40.5681055623609 0 0 1
8635 57 1 1.42561337953916 16.465773661522014 46.47751168127573 1 0 0
8025 54 1 5.8691723258932305 9.505508099730418 45.01153527313416 0 0 0
8026 54 1 6.696400478767789 9.651450548418913 46.3019251713159 0 0 0
8027 54 1 7.293614940439639 8.290731940234185 46.764105185969434 0 0 0
8028 54 1 7.785066168690242 8.14030732439748 48.187201119921525 0 0 0
8029 54 1 8.82086286984421 7.008115240041797 48.29675952325836 0 0 0