LAMMPS data file via write_data, version 23 Jun 2022, timestep = 11111117

9706 atoms
2 atom types
9690 bonds
3 bond types
9674 angles
3 angle types
9658 dihedrals
3 dihedral types

0 36.89775039 xlo xhi
0 26.67072 ylo yhi
29.898923548602767 206.85268085133765 zlo zhi
0 5.567350502088425 0 xy xz yz

Masses

1 14
2 15

Pair Coeffs # lj/cut/omp

1 0.0914 3.95
2 0.1947 3.75

Bond Coeffs # harmonic/omp

1 449.5 1.53
2 449.5 1.53
3 449.5 1.53

Angle Coeffs # harmonic/omp

1 62.0967 114
2 62.0967 114
3 62.0967 114

Dihedral Coeffs # opls/omp

1 1.411 -0.271 3.145 0
2 1.411 -0.271 3.145 0
3 1.411 -0.271 3.145 0

Atoms # molecular

1 3 1 8.356505981533 4.819787949831172 36.20453093302781 0 0 0
2 3 1 8.60258400592228 3.746405733841504 37.252865084388716 0 0 0
3 3 1 9.998931638234463 3.8273537762829473 37.84046746588518 0 0 0
4 3 1 10.179351656415554 2.486355716273848 38.567769464887306 0 0 0
5 3 1 11.464078260062527 2.582666044108873 39.45017388593747 0 0 0
6 3 1 11.398796123944743 1.5191428329193772 40.52857876325584 0 0 0
7 3 1 12.775288198625944 1.25171176565445 41.05245053499819 0 0 0
8 3 1 12.936932014985459 0.27970975500134254 42.223691416145755 0 0 0
9 3 1 14.359788050036759 26.6388156918097 42.51083807039652 0 -1 0
10 3 1 14.343279374805292 25.69229039411603 43.690745394201514 0 -1 0
11 3 1 15.612772766344692 25.571260585953503 44.48782894676716 0 -1 0
9022 59 1 1.5333551364765055 23.844257892138643 40.03216508588178 0 0 0
9253 61 1 3.4200249230366726 25.847665563002096 35.67293452680476 0 0 0
379 36 1 10.828695025451143 6.708231319910988 34.2869520181294 0 0 0
4091 31 1 18.543943546495502 17.895643635207847 36.71746235451601 0 0 0
614 59 1 17.7372683518054 5.659082824673695 41.482734143872314 0 0 0
2553 18 1 7.545283376362523 2.3760922428925104 30.8028542768356 0 1 0
9344 63 1 2.936437143510964 0.3615520975134854 41.863347889417255 0 1 0
220 3 1 4.031475601918853 4.6814254516111715 31.97803088439005 0 0 0
221 3 1 5.400812129722266 4.726778850259885 32.546542394959765 0 0 0
222 3 1 5.5308198888256115 5.6010825319465045 33.78046898106905 0 0 0
223 3 1 6.869559319615293 5.638733004222676 34.458067948476334 0 0 0
224 3 1 7.216466106555032 4.438783820727044 35.325680752499366 0 0 0
304 36 1 13.642316848899087 4.5233915478219 37.62378009642586 0 0 0
305 36 1 14.693035778659393 3.4398377111153864 37.905611722944144 0 0 0
306 36 1 15.177575032298922 3.404771947052025 39.35533101894673 0 0 0
307 36 1 16.131320859487122 2.2605604768387026 39.68572668713593 0 0 0
308 36 1 16.926222146991186 2.4923516629272178 40.99923504721305 0 0 0
309 36 1 17.550446148063067 1.107778298776297 41.23878067183614 0 0 0
5934 54 1 1.0474070822273824 15.801488733592045 44.78096167853959 0 0 0
7299 63 1 1.7220682104385099 6.0467532739090855 40.02980359932215 0 0 0
9340 63 1 0.2973111384962789 0.4044376844983956 38.212531475598375 0 1 0
303 4 1 9.278093544705733 7.765732813788187 32.75634408026674 0 0 1
2323 15 1 3.979458880365536 0.30047880028173535 31.833131841035748 0 1 1
3325 26 1 18.262575727196275 8.459725123118812 36.53732569075427 0 0 0
1878 14 1 5.179917293331591 22.036181012011333 32.8298972096456 0 0 0
8195 55 1 1.3699925584158397 14.722143929631045 38.797963942082966 0 0 0
9647 64 1 11.070118479174866 24.60830540329941 45.478269193481445 0 0 0
380 36 1 11.572636620549245 5.431580149605449 34.707145846203744 0 0 0
381 36 1 12.345550829373344 5.667121167164035 36.00173574140516 0 0 0
382 36 1 13.177172062583821 4.424049160466077 36.24799597864398 0 0 0
383 6 1 8.27250884908512 9.11637339601574 36.19366503452371 0 0 0
384 6 1 8.49838466558141 8.072861612779159 37.33856083814006 0 0 0
385 6 1 9.959099061292369 8.004590177991306 37.72769281563056 0 0 0
386 6 1 9.98413064265002 7.191070818134414 39.01087951583175 0 0 0
387 6 1 11.2565269884775 7.240669963249098 39.63212461153393 0 0 0
388 6 1 11.430499883326291 6.300945377068696 40.73911474627171 0 0 0
389 6 1 12.901979233945987 6.003474033245376 41.15848181253061 0 0 0
390 6 1 13.05729483428676 4.9394314503296926 42.20878299779735 0 0 0
391 6 1 14.565030472825446 4.541738729117786 42.63458443048684 0 0 0
392 6 1 14.717387451172677 3.4161491195035816 43.61020206899219 0 0 0
393 6 1 16.103578327525184 3.3252932433597215 44.34308121472341 0 0 0
394 6 1 16.185056541656976 4.4077748520267175 45.37273368543097 0 0 0
3164 22 1 13.934513402436343 7.9238713968980585 31.345315895689698 0 0 0
5485 40 1 1.1464027125986485 11.416852672054342 44.75969758264742 1 0 0
9345 63 1 4.0565636685440145 26.08246525427857 42.07497105135647 0 0 0
3861 28 1 16.303553927666986 15.672761129961938 34.64063003658596 0 0 1
8490 5 1 1.933389669646086 15.922609939007192 33.82549712779613 0 0 0
3701 25 1 16.187151190437067 14.352445215013406 30.167043052626624 0 0 1
602 6 1 4.247058883570648 9.051414087933056 31.72729304064727 0 0 0
603 6 1 5.4523056200388345 8.89258522459923 32.69131775957933 0 0 0
604 6 1 5.699830864124635 10.064449596936146 33.64020634854336 0 0 0
605 6 1 6.933430114709397 10.18912209669286 34.48862852109413 0 0 0
606 6 1 6.9305649443191255 9.088136169582304 35.47134610599004 0 0 0
607 59 1 12.236420841807403 10.093949152578572 35.92257285489194 0 0 0
608 59 1 13.433059427029107 9.253697770302741 36.21251933819991 0 0 0
609 59 1 13.632133603076994 9.065392348158165 37.68279263073992 0 0 0
610 59 1 14.713737745359008 8.01024154896562 38.014028334528994 0 0 0
611 59 1 15.163324798258186 7.822122872974059 39.44733843613871 0 0 0
612 59 1 16.1872246830858 6.7680415802524 39.73117862924763 0 0 0
613 59 1 16.83350318642688 6.859901885766591 41.181686632897964 0 0 0
4532 32 1 17.662538480310893 22.37512711869328 31.829411072006575 0 0 1
5487 40 1 2.515841633952851 10.454225900336297 46.594332562966144 0 0 0
1205 39 1 8.399353739157524 15.884143743858205 30.72192637584125 0 0 1
4309 31 1 13.915372159803361 21.285006530234597 31.883746728840613 0 0 0
2560 64 1 18.646375212732455 26.661522215450166 38.00427884652614 0 -1 0
995 9 1 18.43171629733139 10.083163718530496 42.67612525861162 0 0 0
8573 3 1 0.46064103384412575 18.002810950648627 38.308659249978774 1 0 0
5100 1 1 2.6577755749058376 5.889706266776493 46.25867923117263 1 0 0
7516 34 1 0.8687726550566547 5.708307239013316 33.67361749888505 1 0 0
829 59 1 10.440867386313615 11.142482375260135 34.47734448863125 0 0 0
830 59 1 11.730120916964472 10.317573199205372 34.51833720593752 0 0 0
831 9 1 8.347944559894282 12.588622782288429 37.56410125416074 0 0 0
832 9 1 9.770030228858863 12.374148960508208 37.91540652462286 0 0 0
833 9 1 9.91496655720077 11.412189207482221 39.08308716724073 0 0 0
834 9 1 11.316644739304737 11.254203392510789 39.524918406323906 0 0 0
835 9 1 11.61278971961927 10.416115738838151 40.74710597662639 0 0 0
836 9 1 13.061598739422033 10.059079633761808 41.11246630750206 0 0 0
837 9 1 13.153970854563214 9.199282560151842 42.4114237584848 0 0 0
838 9 1 14.550254052524688 8.954675466857156 42.85132407618581 0 0 0
839 9 1 14.573755702386094 8.08546016892621 44.0943498542451 0 0 0
840 9 1 15.849867085357308 7.734632704225846 44.54309081091601 0 0 0
841 9 1 16.440383576916357 8.789413204378254 45.35887204922095 0 0 0
2554 18 1 8.705026919285661 3.420782952180242 31.14097950153854 0 1 0
2559 64 1 18.302778884605086 0.08948533265978197 36.525077224378194 0 0 0
9250 61 1 1.22951559254202 23.512871018836904 33.23971587031846 0 0 0
9024 59 1 3.1323323480042555 22.59037077077811 41.60913929233752 0 0 0
8488 5 1 0.2862820932796315 14.87810896025713 31.99292650556769 0 0 0
2105 33 1 9.969337525750227 24.81650761676419 32.88373764357609 0 0 0
3859 28 1 14.541355087264227 16.595074283204795 33.10704621802537 0 0 1
905 9 1 5.6523542364420365 13.662150450966035 32.95007199713138 0 0 0
906 9 1 5.776926322650863 14.947944303591258 33.7852655012676 0 0 0
907 9 1 6.858704078524729 15.022783068624557 34.81866152961416 0 0 0
908 9 1 6.932443013613703 13.91522479927993 35.87548132790376 0 0 0
909 9 1 8.280644148646768 13.535628062996848 36.31981148075933 0 0 0
989 9 1 13.706056248916557 13.120557758595499 37.6326634997006 0 0 0
990 9 1 15.097753667646828 12.446549697765484 37.85666070309274 0 0 0
991 9 1 15.30249414951223 12.209733873020372 39.331888148171494 0 0 0
992 9 1 16.486094561059957 11.243110896127384 39.756980810944064 0 0 0
993 9 1 16.763580540284206 11.196274521070473 41.20727934591588 0 0 0
3702 25 1 17.437733687499694 13.510798861457934 30.2157117698602 0 0 1
1436 11 1 2.8306891331565267 17.261213765939395 30.23293340505684 0 0 0
310 36 1 18.17250262886448 0.9766449845463469 42.63844300454677 0 0 0
5935 54 1 2.2569203699156732 15.003142402095158 44.95893471549385 0 0 0
395 6 1 17.342518999353445 4.412324464453126 46.215881307209685 0 0 0
7755 23 1 8.805243364003232 4.839477907925156 47.20561664606228 0 0 0
7144 49 1 0.7346694280486636 2.854480628266361 43.46013373885569 0 1 0
9643 64 1 8.050047540931866 0.10860739687700013 41.86912419286319 0 1 0
7518 34 1 2.2951336934514854 6.798929033389162 35.62722493139565 0 0 0
1209 9 1 10.507367926886685 15.397481226093547 34.55386519765007 0 0 0
1210 9 1 11.961930040517595 14.959340415966281 34.70841092203841 0 0 0
1211 9 1 12.133846782354711 14.28822616109339 36.098379836753885 0 0 0
1212 9 1 13.560702330256238 13.701659665511087 36.221138327735005 0 0 0
1213 11 1 4.230612167128937 17.38232845969709 30.79392260957794 0 0 0
1214 11 1 4.233905730390022 18.17740256697428 32.099994535397876 0 0 0
1215 11 1 5.6174641758457735 18.438546493417817 32.719901530750555 0 0 0
1216 11 1 5.677966193146224 18.894233038077132 34.14848928627815 0 0 0
1217 11 1 7.11208226373382 18.893374443180118 34.716132776688724 0 0 0
1218 11 1 7.1303723522990685 18.236860647825264 36.026088324963595 0 0 0
1219 11 1 8.475949639496775 17.76747487856652 36.534293759325664 0 0 0
1220 11 1 8.522063727487195 16.97344041468855 37.75054631713043 0 0 0
1221 11 1 9.979901138225806 16.293233656699936 37.940774743068836 0 0 0
1222 11 1 10.211846160052733 15.772607579653817 39.36620210699786 0 0 0
1223 11 1 11.623315949378524 15.371279013585347 39.66676039305095 0 0 0
1224 11 1 11.690798652004405 14.638160023137678 40.95306399947303 0 0 0
1225 11 1 13.10476316004925 14.368893669796748 41.291778013846546 0 0 0
1880 14 1 6.724233095338841 23.35828327815368 34.57635030639219 0 0 0
9026 59 1 4.784913024834097 21.423774081844183 43.29840072124205 0 0 0
2102 60 1 7.551113219932475 24.641393042526058 30.545171706856394 0 0 1
903 9 1 4.035411323517795 12.794798542820157 31.125844091702305 0 0 0
3167 23 1 17.48484011371818 8.83942881076538 31.2151618786018 0 0 0
1654 12 1 8.490889051720519 21.30573040576713 31.096346173016027 0 0 1
9633 64 1 0.7087639901859727 1.6305257462560308 33.58179087853233 0 1 0
3858 28 1 13.858894095951404 16.52374778131932 31.713267851305876 0 0 1
601 6 1 3.9109355751717323 7.928990193497762 30.78075380588432 0 0 0
8505 5 1 12.918174245383904 10.027727975339333 47.13066084154999 0 0 0
1437 13 1 13.401310168069802 17.66091083389912 37.76278300787394 0 0 0
1438 13 1 14.658418723923507 16.81190801649208 37.83083211540694 0 0 0
1439 13 1 15.108824211281046 16.560097557591487 39.30634766270366 0 0 0
1440 13 1 16.345238904855712 15.69809270392549 39.38350177879646 0 0 0
1441 13 1 16.773544972877737 15.505736609513223 40.80016671561245 0 0 0
1442 13 1 17.85332944700403 14.497534074050169 40.911201344109585 0 0 0
1231 11 1 17.67282298661151 13.204426725236365 46.53634240415343 0 0 0
7297 63 1 0.5962151418790608 4.7549656373342915 38.304407690289864 1 0 0
302 4 1 8.741985230311 7.987833635832576 31.39757353195998 0 0 1
9648 64 1 12.243018291552808 23.66899977646565 45.582020457920436 0 0 0
8800 58 1 5.893512531617437 19.299272568854487 39.37065297764044 0 0 0
2326 16 1 6.755508112917353 1.2612738891119952 34.338820065524295 0 1 0
9267 61 1 13.83902716505004 17.716652593517892 47.34850688486577 0 0 0
7300 63 1 2.5880937834234854 4.839973177581725 40.30852782049291 0 0 0
1657 13 1 10.323657341441677 19.86984185189644 34.30858076942894 0 0 0
1658 13 1 11.634776335043716 19.210631674298334 34.55084441446899 0 0 0
1659 13 1 11.839790787338728 18.888655067396016 35.980412511935874 0 0 0
1660 13 1 13.133453560914935 18.0309983470483 36.24435426369123 0 0 0
1661 14 1 9.763084146033123 20.169862324353737 39.19776620384554 0 0 0
1662 14 1 11.220357406435076 20.075347053617765 39.702007212004155 0 0 0
1663 14 1 11.316800812553812 19.082165706036175 40.84119212197713 0 0 0
1664 14 1 12.698600480133205 18.74107216019113 41.31240690753087 0 0 0
1665 14 1 12.875388541455251 17.91012694564016 42.53020920140155 0 0 0
1666 14 1 14.300014373878541 17.863915269893628 42.993088311753695 0 0 0
1667 14 1 14.489051708865825 16.614284631972314 43.80542044171364 0 0 0
1668 14 1 15.912557166082692 16.568524617379794 44.39699340310787 0 0 0
1669 14 1 16.277431867560363 17.94783158080975 44.84241638897576 0 0 0
1670 14 1 17.167137551847652 17.937867084210986 46.08588488071893 0 0 0
4612 34 1 12.64859213049142 26.56196694597546 31.176808345937687 0 0 0
5097 1 1 0.620782146883478 7.026397952139196 43.13134216895905 1 0 0
8799 58 1 5.049220063315513 20.55920023713056 39.11611079240329 0 0 0
219 3 1 3.85387407751771 3.699175117686551 30.86549809741421 0 0 0
7750 23 1 4.728967432855351 8.349088281960531 43.66414616543419 0 0 0
301 4 1 8.058432028651854 6.733883455401314 31.0167644105632 0 0 1
9255 61 1 4.785795550003648 24.84299307394276 37.45119458000898 0 0 0
6763 47 1 2.1425112611965793 23.65131535652096 45.23401822877881 1 0 0
2103 60 1 8.434762483821991 25.770624611362308 31.014902635117718 0 0 1
1881 14 1 6.858850271439006 22.245744949198507 35.6427954487175 0 0 0
1882 14 1 8.10345723012966 22.38668705438319 36.51381018193309 0 0 0
1883 14 1 8.271126039967001 21.407881759050078 37.676303196022104 0 0 0
1884 14 1 9.688352388756744 21.175314623930205 38.09956735577902 0 0 0
1885 33 1 12.94916238107246 22.359710463978683 36.104962425847006 0 0 0
1886 33 1 13.339891408907622 22.362972588136046 37.64890245541871 0 0 0
1887 33 1 14.295166589138747 21.235906588458167 37.93953868361744 0 0 0
1888 33 1 14.674602353293425 20.991395422148962 39.437723033152274 0 0 0
1889 33 1 15.779874695454259 19.94574124231914 39.579604928956314 0 0 0
1890 33 1 16.505914010998175 19.92696445480388 40.934128678930755 0 0 0
1891 33 1 17.60776811145954 18.92798171966128 40.88851463583944 0 0 0
1653 12 1 7.801929847419997 20.067985060766915 30.513489442197574 0 0 1
1230 11 1 16.608101059599623 13.400977324882701 45.457028424879496 0 0 0
7749 23 1 4.137365256379188 8.291763521757195 42.332826178705965 0 0 0
5936 54 1 2.2707231730401762 14.554175349142117 46.41608085232225 0 0 0
9252 61 1 2.2886636638562265 24.916394816204377 35.274222895162175 0 0 0
9637 64 1 3.86938807916126 3.830397008641056 36.99278722430038 0 1 0
4541 34 1 18.424931041156913 22.101458746001427 38.012798258978194 0 0 0
9025 59 1 3.9236121407312736 21.316567144897075 42.02709158945777 0 0 0
2106 33 1 10.088708159994031 24.333113263105314 34.30646531202957 0 0 0
2107 33 1 11.368353467712629 23.622056763215934 34.584101920175485 0 0 0
2108 33 1 11.579539147740473 22.900985345897084 35.92199622003097 0 0 0
2109 16 1 11.344228043950434 23.47789685065234 40.50525972761562 0 0 0
2110 16 1 12.644259370357672 23.680005540008345 41.301772594136054 0 0 0
2111 16 1 12.846946194935876 22.475130626926227 42.2175162579569 0 0 0
2112 16 1 14.205930030974091 22.45693420460591 42.97915450407504 0 0 0
2113 16 1 14.374557556700443 21.216465621148906 43.81396553294602 0 0 0
2114 16 1 15.851091266443081 21.246841682606625 44.250092009612004 0 0 0
2115 16 1 15.926133234287398 22.29036695540171 45.21735054494067 0 0 0
2116 16 1 17.215131093869644 22.267214252147024 45.962503020458996 0 0 0
8498 5 1 7.4377057229945684 13.450146601999155 40.8672985388208 0 0 0
2716 35 1 13.798020154272155 3.658886817323368 31.25510928277214 0 0 1
1892 33 1 18.139249655150056 18.69329123616678 42.26286312587046 0 0 0
9346 63 1 4.402166052794884 25.71743127451523 43.40642238195528 0 0 0
842 9 1 17.61482711909003 8.521660202777378 46.29605989877862 0 0 0
7751 23 1 5.709247982248754 7.237683052574289 43.86159883342473 0 0 0
8806 58 1 10.693114321247045 15.910100791144487 44.13208047797772 0 0 0
9343 63 1 2.627124494304135 0.43045175227274274 40.32842853254244 0 1 0
9028 59 1 6.457244447197084 20.453648321357036 45.11300639483562 0 0 0
2327 16 1 6.893382769187906 0.05499024105340517 35.237061611575584 0 1 0
2328 16 1 7.994844938087269 0.24776073102792986 36.35233122913718 0 1 0
2329 16 1 8.283220900300904 25.651084024607115 37.137750477417185 0 0 0
2330 16 1 9.706155465695543 25.697869691816937 37.75809365848979 0 0 0
2331 16 1 9.847982997305325 24.55865179244768 38.71717590750006 0 0 0
2332 16 1 11.137069535784882 24.651123106609223 39.508896162377766 0 0 0
2333 18 1 10.545306624753163 2.232564529452166 34.27408982231448 0 1 0
2334 18 1 11.48392568641667 1.081003248471961 34.62937580777621 0 1 0
2335 18 1 12.08064801561732 1.119902934983306 35.97248932613539 0 1 0
2336 18 1 13.023730583861223 0.004134537909681415 36.19487260304122 0 1 0
2337 18 1 13.70089182794172 0.311482344096674 37.506853908505256 0 1 0
2338 18 1 14.451603902209078 25.661264337399427 37.8468325934285 0 0 0
2339 18 1 15.092701533391674 25.74747254123801 39.227344686533726 0 0 0
2340 18 1 15.919909487914241 24.440333323510856 39.46299672050051 0 0 0
2341 18 1 16.28415064533311 24.318443679804055 40.99325422183958 0 0 0
2342 18 1 17.53805126025748 23.44178351467791 41.15090717699901 0 0 0
3163 22 1 12.675488418336935 8.748792034774038 31.20379088338739 0 0 0
3862 28 1 17.08405713995691 14.43511279326993 35.07724728343123 0 0 1
7971 54 1 2.6064838916399236 11.54481611318926 35.33619744901376 0 0 0
3399 26 1 14.269273246207456 12.092414682175383 32.99314541504421 0 0 0
8795 58 1 2.2909974357335807 20.29268528101961 35.432149240184415 1 0 0
5098 1 1 0.8992437166080065 7.072968972520849 44.579160265449076 1 0 0
2555 18 1 9.144248045833434 3.5087088896748164 32.54543438920736 0 1 0
2556 18 1 9.790252928927178 2.189702366475184 32.988415993155876 0 1 0
2557 64 1 16.559903389465667 0.9918235870534414 34.756736207931084 0 0 0
2558 64 1 17.103066994716762 0.9324940539336263 36.263265124713975 0 0 0
9649 64 1 12.426931816616174 23.264255871651255 47.09266062086455 0 0 0
4083 2 1 16.459796662984584 18.94081795939215 30.218723520915702 0 0 1
1232 11 1 17.949057707151862 14.555533737467972 47.25868496412249 0 0 0
7147 49 1 2.6178384323506823 1.709105726620081 46.46405672870301 0 1 0
8581 3 1 6.061061610235574 15.597945442168651 45.03472153236347 0 0 0
4924 36 1 17.450580845183048 0.11393689477682341 31.416551674091952 0 1 0
2636 64 1 15.42417039221881 2.596266861187133 32.97066524140974 0 0 0
2637 64 1 15.558206882734293 1.9841038717924375 34.37984780201397 0 0 0
825 41 1 7.6167592216452915 11.34371509660284 30.998783834590217 0 0 1
8582 3 1 6.957686152769722 14.434539165227388 45.37807156333562 0 0 0
1227 11 1 14.845004902099479 13.240734058235235 43.05696660204512 0 0 0
6385 56 1 2.344754206653898 18.628414073347432 46.48856700239258 0 0 0
2941 22 1 14.318653186937631 7.730757762060736 32.823782856487604 0 0 0
2942 22 1 15.363002075389199 6.6735793279405975 33.111154845863595 0 0 0
2943 22 1 15.644423184096405 6.45952095611888 34.56836842836628 0 0 0
2944 22 1 16.886847203892604 5.561945750666437 34.70125200275914 0 0 0
2945 22 1 17.16472486186049 5.2042987201667765 36.17615379552502 0 0 0
9350 63 1 7.290473845319315 23.720163621370336 46.834393471177805 0 0 0
9027 59 1 5.336163447310041 20.17419986737041 44.09087052640463 0 0 0
9258 61 1 6.496462409589389 23.877413146082922 40.83225392443588 0 0 0
2325 15 1 5.524292568888011 1.1607377655279858 33.51241272867364 0 1 1
8575 3 1 1.8516502478247716 19.125994500212244 40.15009268112782 1 0 0
1443 13 1 18.503357223678123 14.287411723507134 42.292445584809485 0 0 0
7304 63 1 5.429124854855522 2.385060535891485 43.71463658220234 0 0 0
8798 58 1 4.587733953286081 20.386943521772753 37.72302941089253 0 0 0
8804 58 1 9.05274023572419 16.850355612375616 42.62608679657608 0 0 0
3323 26 1 16.866158442111633 9.732682683996911 34.74452557822123 0 0 0
3324 26 1 17.317505730177412 9.679443938824887 36.18215954240219 0 0 0
7745 23 1 1.245053903326621 10.535843383104043 38.76516703387486 1 0 0
7968 54 1 0.8655865655886603 10.233670549669187 32.05382496090463 0 0 0
5486 40 1 1.5358000236323184 10.147115537670532 45.46214187876224 0 0 0
9021 59 1 1.0990865105650536 23.939364627341327 38.59473451289902 0 0 0
5933 54 1 0.5038537140918627 15.753652449908895 43.353244653639194 1 0 0
2343 18 1 18.17537544006031 23.131953330358638 42.47384525483855 0 0 0
3400 26 1 15.173502663513384 10.89422329267902 33.35311969251323 0 0 0
3401 26 1 16.05065073396063 10.970975221834737 34.530964839737855 0 0 0
2635 64 1 14.036886788841414 3.1835443059413424 32.71365210809579 0 0 0
3860 28 1 15.421402985856243 15.467485006741333 33.38555542180936 0 0 1
9342 63 1 1.6967582146872384 1.5976741891943107 39.986908423268794 0 1 0
6764 47 1 2.693759865435831 23.558105037080843 46.58726179521827 0 0 0
8577 3 1 3.136149804491213 17.758736104404367 41.72863169851237 0 0 0
8501 5 1 9.887627299553845 12.487314571208207 43.64832090775842 0 0 0
5488 40 1 3.342597115289083 9.255230266879012 46.950729249741855 0 0 0
3479 24 1 12.952125662753355 13.335210340068347 31.286724414810223 0 0 1
8196 55 1 1.8847557645986512 14.58847886334957 40.206804231169855 0 0 0
7148 49 1 3.519933188982866 0.5136628538664609 46.74345615793494 0 1 0
7517 34 1 1.8901877630465045 6.643511217134144 34.163770508266566 1 0 0
9251 61 1 2.139731509571518 24.69958279140377 33.77181180405725 0 0 0
7746 23 1 1.6550216393918744 10.399546270354948 40.165150475047675 0 0 0
6761 47 1 0.6535623460097363 24.748470217615463 43.575498127883904 1 0 0
7305 63 1 6.276670710445579 2.5026647933890303 44.97887027267484 0 0 0
9254 61 1 3.5939247135729433 25.74647122856109 37.195482479189074 0 0 0
9638 64 1 4.904654313941417 2.840925845779359 37.32662367422796 0 1 0
4531 32 1 17.267913937028798 22.427608877982813 30.317692194806668 0 0 1
4087 31 1 15.428015839412724 20.061508896712766 33.599152968962805 0 0 0
4088 31 1 15.593131259761918 19.887863443816528 35.07905894335823 0 0 0
4089 31 1 16.789120483564083 19.00241490838081 35.17398715170412 0 0 0
4090 31 1 17.43172343750474 18.934125788916027 36.52227768461321 0 0 0
8792 58 1 0.5184628112503531 19.36285022230394 32.16957702038428 1 0 0
9645 64 1 9.660033128420867 25.850771613655876 43.672497177908255 0 0 0
9029 59 1 7.1610920961404245 19.142930282095573 45.542861766082424 0 0 0
828 59 1 10.053182317462422 11.380031916719531 33.02674861642856 0 0 0
3781 13 1 17.691669750152453 14.240371671493834 36.42816707714666 0 0 0
4310 31 1 14.37868749625766 21.16552134683653 33.30714019099711 0 0 0
8794 58 1 1.850494241022836 20.41027597777559 33.9728019935995 1 0 0
9639 64 1 5.19502727168541 2.6772096452677037 38.785875546313235 0 1 0
8503 5 1 11.280890832411895 11.275477861861317 45.46008140756623 0 0 0
904 9 1 4.272554001668278 13.704458808000572 32.32597570397507 0 0 0
4535 34 1 13.98348336547526 25.48534268743232 33.065011918341625 0 0 0
4536 34 1 15.124478575758307 24.50785065775404 33.13093729999798 0 0 0
4537 34 1 15.421220712263759 24.276241288466583 34.569129925522624 0 0 0
4538 34 1 16.726066993473076 23.544287038961713 34.8959827636519 0 0 0
4539 34 1 16.82595259823321 23.29876284456526 36.36243871781242 0 0 0
1875 51 1 2.555375902559975 21.479478314451203 29.963357914491436 0 0 1
9634 64 1 1.9844988625365472 2.300156077648254 33.914905518320424 0 1 0
827 59 1 9.125051137103819 12.485201702269077 32.702417135295214 0 0 0
2322 15 1 3.834198071803468 25.805735642461986 30.865678878894848 0 0 1
4613 34 1 13.71389123129214 25.514837751738096 31.53814783847497 0 0 0
4308 31 1 12.72955719056304 22.071494486696622 31.41660765529734 0 0 0
1877 51 1 3.975958277418063 22.243824750638012 31.862799538812652 0 0 1
378 36 1 10.273128451998167 6.694771291898704 32.935687786629735 0 0 0
7969 54 1 1.2460217090126415 10.282192793744418 33.5756153392935 0 0 0
9262 61 1 9.74328277499858 21.69903645314275 44.21258115749406 0 0 0
12 3 1 15.815386905659796 0.10697785200645367 45.48066617646471 0 0 0
7970 54 1 1.9926398615434184 11.607271365565783 33.95189411576815 0 0 0
9265 61 1 12.185507361886527 19.17757517856697 45.84619728958221 0 0 0
7308 63 1 8.550475800016256 0.17107506691815014 47.090769972739885 0 0 0
9261 61 1 9.21483702871192 21.57472394527403 42.82783276111604 0 0 0
9260 61 1 8.013905565886084 22.58419270141628 42.63457324611706 0 0 0
9351 63 1 8.651930079881595 23.14596512131224 47.17731864067251 0 0 0
7520 34 1 3.47211501924463 8.161534762895961 37.2410715489147 0 0 0
7303 63 1 4.6098017999470775 3.6436475478359776 43.41461872080733 0 0 0
8584 3 1 8.679954269674118 13.821651057931678 47.10367061597707 0 0 0
1656 13 1 9.903947224886048 20.07644471334499 32.83767121402414 0 0 0
1879 14 1 5.369523753074252 23.23725588697607 33.722110852387985 0 0 0
9264 61 1 10.996361553908965 20.013085142853832 45.78798693858253 0 0 0
9636 64 1 3.38187118717663 3.603091530050273 35.5929092685626 0 1 0
8793 58 1 0.8820907213322796 19.266384686996606 33.662381161685424 1 0 0
1229 11 1 16.144560891639554 12.08384776743213 44.87554804702119 0 0 0
8198 55 1 3.2453937244333138 13.445232703391158 41.93272248605327 0 0 0
8578 3 1 4.305106692362683 16.858378135843232 41.86289271994309 0 0 0
9641 64 1 6.616854400213164 1.3667417665080437 40.45015261631588 0 1 0
9259 61 1 7.621668854924988 22.891466762000583 41.17700507933753 0 0 0
9263 61 1 10.611065623136765 20.51850440011076 44.36723651910296 0 0 0
8197 55 1 2.9480220839854203 13.554096505329877 40.46006967622258 0 0 0
7533 34 1 12.971295674901448 0.22510756896410317 47.47317804373603 0 0 0
9646 64 1 10.92424639945344 25.066277979803925 44.04697408304727 0 0 0
8810 58 1 13.78990025659892 13.662368442741782 47.461652588109644 0 0 0
7302 63 1 3.885467488341284 3.5223352092529017 42.13789435447774 0 0 0
9640 64 1 6.1495520350016575 1.5824194958365876 39.04092044482252 0 1 0
8500 5 1 9.296261403959708 12.38208616153703 42.25331310907974 0 0 0
8497 5 1 6.618558557694758 14.678867050137109 40.57012007219872 0 0 0
2715 35 1 12.520360793623572 4.326192294002832 31.077815681539743 0 0 1
1228 11 1 14.77462597988576 12.262952628482193 44.1449792818689 0 0 0
8489 5 1 0.9263726415877628 14.88836337642486 33.401729717993646 0 0 0
1207 39 1 8.967172669316248 16.534922406207034 33.138899819291034 0 0 1
2104 33 1 8.678906254958408 25.55859327788305 32.510137013556445 0 0 0
1226 11 1 13.36933328615549 13.4980677910759 42.54804189455588 0 0 0
988 10 1 2.785257855928999 12.704267997440208 30.302092370587225 0 0 1
7521 34 1 4.624191334522166 7.18946576828794 37.34787256003367 0 0 0
6383 56 1 0.9572032028147678 20.06632824845336 44.92202260456355 0 0 0
4085 2 1 17.948884242321814 17.799728604134934 31.795704850521542 0 0 1
2324 15 1 5.0902599485918145 26.56304585043157 32.87512592592959 0 0 1
4540 34 1 18.036371782341003 22.4902077721975 36.600729953730756 0 0 0
7145 49 1 1.0458209290500844 2.4631865087239806 44.91624249756927 0 1 0
5101 1 1 3.933651967675797 5.091786460441318 46.40020894990978 0 0 0
8796 58 1 3.239185984387315 21.44569788795853 35.7367247821135 0 0 0
9347 63 1 5.8181497944881055 25.362970029643545 43.675213136561865 0 0 0
8802 58 1 7.727903207864318 18.253610496387303 40.87668917207641 0 0 0
7522 34 1 5.0307618965467835 6.981160734116928 38.77841640219675 0 0 0
7523 34 1 6.04526001913094 5.9350167159053715 38.88538661225482 0 0 0
7524 34 1 6.362203390155423 5.7651780680517 40.27370877417919 0 0 0
7525 34 1 7.652145539937438 4.9707103338903345 40.491919297694565 0 0 0
7526 34 1 7.881466763119242 4.685254508513784 41.97346736311505 0 0 0
7527 34 1 8.882690202220733 3.641262215090995 42.28526237676758 0 0 0
7528 34 1 9.396419057377171 3.697225051855779 43.686393842296674 0 0 0
7529 34 1 10.522237300972376 2.6528488041821308 43.91409184908076 0 0 0
7530 34 1 11.368904975839982 2.775116943461205 45.14522574782484 0 0 0
7531 34 1 12.174106071088499 1.5166625477194724 45.44769093235274 0 0 0
2717 20 1 18.041215717898595 4.534358202471809 31.273286961061597 0 0 0
5099 1 1 2.118853518696127 6.131807026873686 44.87282236264349 1 0 0
8499 5 1 8.286249006836924 13.548883868470773 42.10416923807806 0 0 0
9030 59 1 7.706817385394145 19.212714883047784 46.97864975307684 0 0 0
8801 58 1 6.698434697478938 19.370940549467015 40.69572907509375 0 0 0
8504 5 1 12.287363624533382 10.101521185389133 45.677852691225624 0 0 0
9023 59 1 2.5011847750474727 22.657831342779065 40.2200819297366 0 0 0
7301 63 1 3.1900506095258385 4.808594813248632 41.69009322525844 0 0 0
826 59 1 8.634843519147147 12.445163790411158 31.242279739301765 0 0 0
7519 34 1 3.0653867745710914 8.10827678057395 35.7667766371151 0 0 0
6386 56 1 3.77906099559411 18.27000379937151 46.77628335796621 0 0 0
7752 23 1 6.267498235997206 7.145004605249172 45.24277972145976 0 0 0
7753 23 1 7.3341935172416015 6.126373213427882 45.46946489565472 0 0 0
3703 25 1 17.655174821839807 13.260254509201028 31.727956505574085 0 0 1
600 6 1 2.673985606229234 8.206038744134847 29.995145830735414 0 0 0
7983 54 1 10.993913015333895 6.984859384384168 45.49453937810781 0 0 0
1876 51 1 3.891164503047025 21.251454193144955 30.668610206007994 0 0 1
9644 64 1 9.354314303628096 25.9834036765541 42.20461201437085 0 0 0
7748 23 1 3.1499848150310426 9.3939100890591 41.947381517417455 0 0 0
7146 49 1 2.3296647111043263 1.754842051360862 44.973436535557866 0 1 0
8797 58 1 3.6316446873924444 21.45050512994387 37.2153550341842 0 0 0
7754 23 1 7.877104471456584 6.034585498889997 46.97873296549707 0 0 0
8579 3 1 4.638494008289809 16.710463563117912 43.35929880596636 0 0 0
9341 63 1 1.4094253572079332 1.41578605882946 38.49884875473552 0 1 0
7972 54 1 3.339081836265839 12.86487400590482 35.72718040950531 0 0 0
7973 54 1 3.696795896095007 12.588616889206602 37.132478650681435 0 0 0
7974 54 1 4.667600772311802 11.497280535532381 37.34076791511814 0 0 0