LAMMPS data file via write_data, version 23 Jun 2022, timestep = 11111117

9706 atoms
2 atom types
9690 bonds
3 bond types
9674 angles
3 angle types
9658 dihedrals
3 dihedral types

0 36.89775039 xlo xhi
0 26.67072 ylo yhi
29.4914778688141 207.2601265311974 zlo zhi
0 5.592988758599197 0 xy xz yz

Masses

1 14
2 15

Pair Coeffs # lj/cut/omp

1 0.0914 3.95
2 0.1947 3.75

Bond Coeffs # harmonic/omp

1 449.5 1.53
2 449.5 1.53
3 449.5 1.53

Angle Coeffs # harmonic/omp

1 62.0967 114
2 62.0967 114
3 62.0967 114

Dihedral Coeffs # opls/omp

1 1.411 -0.271 3.145 0
2 1.411 -0.271 3.145 0
3 1.411 -0.271 3.145 0

Atoms # molecular

1 2 1 9.95106692114858 20.601692640260673 39.97189434772322 0 -1 0
2 2 1 9.262791368378341 20.29880283796931 41.30257557108401 0 -1 0
3 2 1 10.141660873384676 19.290566049176835 41.977292602385475 0 -1 0
4 2 1 11.408032233659629 20.049047310988083 42.1868036926409 0 -1 0
5 2 1 12.240206631444652 19.53892875174214 43.40406112098885 0 -1 0
6 2 1 13.647787213308927 19.973316810314667 43.57217382520296 0 -1 0
7 2 1 14.156557712023305 19.539413942925886 44.83982341924914 0 -1 0
8 2 1 15.535681238523892 20.126838232257427 45.068034548991164 0 -1 0
1755 12 1 3.6481135018003985 15.690151429831664 30.033054106976618 0 0 0
8510 60 1 2.6240516348685463 9.187426296926896 39.320365741645446 0 0 0
1144 9 1 17.85929238916081 4.746923797928141 43.37598075314831 0 0 0
378 6 1 10.383917518592268 0.006964867749391418 30.652782825802426 0 0 0
7295 48 1 1.5705292303216356 24.344004978606137 35.758943259911206 1 -1 0
598 32 1 2.4769209820617126 1.4454975935137329 29.563591320869733 0 0 1
4967 33 1 0.53759410822494 23.04553766461089 45.725857923495965 1 -1 0
2285 56 1 12.106368044084164 22.641449968713715 33.02568768207218 0 0 1
821 5 1 12.018125646959367 4.888579516260698 31.64926515191469 0 0 1
9275 61 1 1.4830228219370558 19.59527742030468 36.28216324418446 0 0 0
220 2 1 8.456041008628901 23.93393839949617 34.66413700313762 0 -1 0
221 2 1 9.367594348795057 23.20751356469544 35.63248188608024 0 -1 0
222 2 1 8.701348026399039 22.814855259173708 36.95449558508783 0 -1 0
223 2 1 9.67686093941146 21.93103862580176 37.67977193686755 0 -1 0
224 2 1 9.086156092446883 21.528018891875867 39.04024849956576 0 -1 0
304 6 1 12.212271919823554 25.250715566330424 35.16482410999725 0 -1 0
305 6 1 13.063095000097455 24.353191834269914 36.0222390010379 0 -1 0
306 6 1 12.46754233349219 23.79477976671103 37.32705259964079 0 -1 0
307 6 1 13.464097385413478 23.214521580575823 38.31574713296709 0 -1 0
308 6 1 12.848216934822135 22.441143560087465 39.39999174804876 0 -1 0
309 6 1 13.85371518473968 21.921661809054246 40.422743119763 0 -1 0
310 6 1 14.938055808998673 22.833701670055405 41.02194849857237 0 -1 0
311 6 1 16.068642106676506 22.028696118426783 41.722142373761805 0 -1 0
1770 45 1 17.94080713756365 13.661252092943103 42.90988956580622 0 0 0
1467 11 1 17.166480222460955 9.836553702349356 42.260968126823414 0 0 0
7297 48 1 1.8121161550790894 22.97690824986851 37.814449079382385 1 -1 0
379 6 1 11.391907004328313 1.045026197256076 31.115840836750664 0 0 0
8112 7 1 0.6240778853842579 4.1560049096914895 31.854779472051373 1 0 1
2201 14 1 7.034286908989096 19.740210695744484 31.939033302016785 0 0 0
2200 14 1 6.007056865472615 20.335621562622368 30.987502725001676 0 0 0
380 6 1 12.538842423630799 0.5360567235362512 31.999304696965712 0 0 0
381 6 1 12.060473591906916 0.06570650530884203 33.32608098708201 0 0 0
382 6 1 12.998438072937898 25.871581599470677 34.03730608772785 0 -1 0
383 57 1 8.837466944281799 0.4691408294323852 37.224596521836645 0 0 0
384 57 1 9.762506708024512 26.07383426561229 37.94994144388819 0 -1 0
385 57 1 9.30587690896124 25.62546365737663 39.42363745632085 0 -1 0
386 57 1 10.364776465223088 24.661380438883267 39.82375484980245 0 -1 0
387 57 1 9.993338806126394 24.20139859439434 41.22499940000291 0 -1 0
388 57 1 11.159043136283135 23.631849169000787 42.01324720615565 0 -1 0
389 57 1 12.174542977514603 24.618917928015847 42.59353134587735 0 -1 0
390 57 1 13.04116282464405 23.908907236686087 43.601136033031345 0 -1 0
391 57 1 14.053720133987404 24.70690236200739 44.44587262946628 0 -1 0
392 57 1 14.96995851482382 23.744509921468413 45.080232530603496 0 -1 0
393 57 1 15.661258945582398 24.247669802076793 46.31710198747348 0 -1 0
394 57 1 16.72167267843181 25.273153180491235 45.89782821213548 0 -1 0
9189 60 1 4.484563813938542 18.034492937137433 34.12141407452607 0 0 0
8804 57 1 2.4659496233266625 13.459242874761804 33.19358135847085 0 0 0
9284 61 1 4.50491316800074 15.017890133272036 46.19269532634941 0 0 0
4483 28 1 16.39768193085922 19.604167474088346 32.36804975518022 0 0 0
2584 15 1 15.728821159143937 25.37521433669739 30.37534750591889 0 -1 1
2970 46 1 15.245646927124097 2.7314088181757823 31.527709684797916 0 0 1
602 57 1 6.817541766594083 1.7440060626616118 31.884740729636665 0 0 0
603 57 1 7.992153002420691 2.533767469533204 32.49540131207894 0 0 0
604 57 1 8.625285273080154 1.720113281711021 33.662629469062956 0 0 0
605 57 1 8.092306116859495 1.5286356966207886 35.04780854312237 0 0 0
606 57 1 9.271922818350609 0.8098870719585887 35.81767924526904 0 0 0
607 6 1 15.681995871288832 26.526520790732423 41.59063990255568 0 -1 0
608 6 1 16.753491395023474 0.7800702471905402 42.17005361567718 0 0 0
8418 2 1 0.2829581795503901 8.241714810242621 31.82842429535224 1 0 0
8889 44 1 2.274705300367628 14.747976558091118 36.95608052826854 1 0 0
9202 60 1 11.605095843893222 12.296783949920844 46.3575220848257 0 0 0
7681 50 1 1.2416740870392844 2.0808341147013487 36.088608825528986 0 0 0
4026 28 1 15.608599468279325 16.477110356933874 30.201957179549513 0 0 0
7604 48 1 9.454214171175881 21.31393011541249 45.215075058335586 0 -1 0
8133 39 1 4.044441021759563 2.8231330899183873 46.2170882650811 0 0 0
1210 9 1 11.345127454860611 10.041805421692413 30.67056082274568 0 0 0
9495 51 1 3.710112715625287 21.563428843464493 34.08071377395201 0 0 0
8436 2 1 12.097076866716392 4.103523170951074 47.00867640548801 0 0 0
4034 28 1 17.451747188644507 11.182427736413475 38.62881924566308 0 0 0
7301 48 1 2.5642570199497245 20.735610578316045 42.12726747401313 0 -1 0
827 6 1 13.350680101664341 1.0311300090757172 37.93126058530931 0 0 0
828 6 1 12.734560025328165 0.5653927345052573 39.29478722561078 0 0 0
829 6 1 13.780866239081591 26.394063228094705 39.9316201705773 0 -1 0
830 6 1 14.728343711455969 0.6585796928671928 40.678405966591065 0 0 0
600 57 1 4.872088809198146 1.711049931694856 30.445502301473137 0 0 0
3651 22 1 17.979668950599788 7.573419466668909 39.08845896198568 0 0 0
9277 61 1 1.848095881884142 18.805460066044002 38.80607040241274 0 0 0
9493 51 1 1.5201405859053232 21.23297756624577 32.86902405498367 1 0 0
9504 51 1 5.784419366463084 18.083346222762152 42.495889415767174 0 0 0
836 8 1 4.81554537761413 5.906884801157665 30.81418658781129 0 0 0
837 8 1 5.814973779753269 7.010536228571894 31.340027591940068 0 0 0
838 8 1 6.882567197738437 6.413133406079343 32.34270753219227 0 0 0
839 8 1 8.135026081202975 7.216148553323451 32.42281965316981 0 0 0
840 8 1 9.191481608513715 6.679954385341327 33.46514114317583 0 0 0
841 8 1 8.60629091575301 6.423459676017761 34.87814654994471 0 0 0
842 8 1 9.292408062683196 5.245137482081448 35.47449122256041 0 0 0
9499 51 1 5.860681541115519 20.610265062354543 37.59333614566513 0 0 0
4028 28 1 16.099328654236583 15.321333261136251 32.30264733403536 0 0 0
2817 9 1 18.393528176809564 25.598406289821316 39.375896535634126 0 -1 0
2585 15 1 15.226125410933625 24.75948395545814 31.691779419559523 0 -1 1
825 5 1 13.288176427650717 2.460453022401235 35.88535491324484 0 0 1
8420 2 1 2.427609722473996 8.601633853168204 32.963153785418406 0 0 0
8126 39 1 1.5429027147549421 4.96148003616779 38.06577931045274 1 0 0
9200 60 1 9.404595470132866 12.243425065633932 45.23811886065691 0 0 0
8124 39 1 1.0210582249485027 6.269108179198839 36.015097143327765 1 0 0
8508 60 1 2.1658180007917363 10.727023515959068 37.38406689355447 1 0 0
599 32 1 3.6883933105873457 2.357157803943353 29.828163973536558 0 0 1
1134 9 1 12.624212165182858 7.978802096718828 33.61010221727242 0 0 0
1135 9 1 12.155050673175435 7.745821866307112 35.00656032452918 0 0 0
1136 9 1 13.005367716997482 6.964398773997702 35.971050565253385 0 0 0
1137 9 1 12.437118240179393 6.207374054260393 37.17257443946318 0 0 0
1138 9 1 13.39682398675702 5.543502277700426 38.153564736791125 0 0 0
1139 9 1 12.749394830511275 4.9033744838529465 39.37258946516821 0 0 0
1140 9 1 13.71436361516263 4.3248175790246 40.37342909194845 0 0 0
1141 9 1 14.698745804375514 5.2421801562434505 41.08545455155121 0 0 0
1142 9 1 15.81694317997308 4.435703281349577 41.80885159114874 0 0 0
1143 9 1 16.95323797722024 5.275809647252062 42.273649529785686 0 0 0
7682 50 1 2.208397541455709 1.3069901005500864 37.04244469078662 0 0 0
1468 11 1 18.274164604806973 9.44374664552424 43.23527429563617 0 0 0
9502 51 1 6.475091129952309 18.691839159551282 40.01836486883104 0 0 0
7302 48 1 3.275279484786787 20.955660557799302 43.4849659175007 0 -1 0
8131 39 1 3.428327363178071 2.8813284280069538 43.74021854764412 0 0 0
1979 45 1 9.56302301918873 18.947351022906894 29.734559320625102 0 0 0
1211 9 1 12.4242669326398 9.544186187694855 31.581315143434043 0 0 0
1212 9 1 11.725895691617264 8.863262618604697 32.74415867463562 0 0 0
1213 61 1 8.774358602971349 9.307754095488574 36.98119748173587 0 0 0
1214 61 1 9.72583753560107 8.357568328518914 37.70276957176094 0 0 0
1215 61 1 9.04171671212434 8.013333233724977 39.054331874896704 0 0 0
1216 61 1 9.979029894558435 7.103233905046535 39.86190160048752 0 0 0
1217 61 1 9.524277054483923 6.556973079633187 41.188165169442804 0 0 0
1218 61 1 10.56839361426421 5.866154600367256 42.056561857480226 0 0 0
1219 61 1 11.746816866883126 6.757937200849627 42.23221631325396 0 0 0
1220 61 1 12.670731584637183 6.104220709152144 43.190007630616016 0 0 0
1221 61 1 13.500212977412339 7.046909451264556 44.05759593561817 0 0 0
1222 61 1 14.718162859180845 6.280609231815308 44.55852495462589 0 0 0
1223 61 1 15.573623700106225 7.185801391470322 45.510031232255486 0 0 0
8897 44 1 3.12647233219536 11.26845811851451 45.874284782553346 0 0 0
8892 44 1 1.9799520396199846 12.80786517303991 40.24236164376451 0 0 0
846 8 1 9.981708633160041 2.5519854754609597 39.651493916020954 0 0 0
8812 57 1 5.7466521860277835 10.349425596022037 40.74622234137737 0 0 0
4033 28 1 16.592418968481883 11.834225376630444 37.53692229134664 0 0 0
9279 61 1 2.064088508567442 17.445752405697622 40.84900006206366 0 0 0
4410 28 1 17.41493879115172 15.599770388399882 38.52794390417148 0 0 0
1287 61 1 6.8732591370967535 10.873895880389213 32.02325005047218 0 0 0
1288 61 1 8.028745171640853 11.804994121133328 32.55392416171694 0 0 0
1289 61 1 9.073637533469656 11.093973109027091 33.34155815469879 0 0 0
1290 61 1 8.555187902802212 10.714801846516979 34.75031473723087 0 0 0
1291 61 1 9.38509490771697 9.763230638131795 35.610695925399874 0 0 0
1456 11 1 12.260128349993696 13.955109187310198 31.865743275237268 0 0 0
1457 11 1 11.848289555722463 13.188734798798679 33.124868002124884 0 0 0
1458 11 1 12.907874680717528 12.391085073008272 33.93464376325441 0 0 0
1459 11 1 12.176547627615768 11.737811327840753 35.080029084260346 0 0 0
1460 11 1 13.128561327707521 11.660314100562621 36.28541382989198 0 0 0
1461 11 1 12.604269646835066 10.777241978804533 37.45085276799102 0 0 0
1462 11 1 13.711196232914887 9.980345136209875 38.09876323350795 0 0 0
1463 11 1 13.165964294781467 9.327106331761772 39.30387639812017 0 0 0
1464 11 1 14.168616479584855 8.66315489684822 40.32265341148273 0 0 0
1465 11 1 15.26815621071757 9.546477040625039 40.84513673426001 0 0 0
1466 11 1 16.22238995413963 8.874861056335769 41.85101586064903 0 0 0
9274 61 1 0.31799118236148716 18.683862708022655 35.96111276377737 0 0 0
851 8 1 13.773635439686215 2.6138375605419024 44.09370592906954 0 0 0
8132 39 1 2.9594019310387254 2.8104511539032626 45.12576701008835 0 0 0
7893 7 1 5.651631509246598 3.799094755117451 35.776120206788896 1 0 1
7594 48 1 5.752434743052592 26.18621784914737 35.44359850805421 0 -1 0
312 6 1 16.976683647012386 23.015996936738453 42.37864706083557 0 -1 0
1534 11 1 11.090899635222073 14.56112325403367 31.23402947317631 0 0 0
1535 12 1 7.558208242918096 16.335740494114408 32.71603823520491 0 0 0
1536 12 1 8.726292322086001 15.885291231922203 33.57710367181935 0 0 0
1537 12 1 8.383036451657931 14.89005711662764 34.730278805379484 0 0 0
1538 12 1 9.443215492737155 14.223531681146461 35.590604110126364 0 0 0
1539 12 1 9.020452051470548 13.68738087584289 36.92908317179037 0 0 0
1540 12 1 9.884075714940023 12.754418177416872 37.74797106173298 0 0 0
1541 12 1 9.222400767107686 12.4283469061811 39.127548590876145 0 0 0
1542 12 1 10.066205602807084 11.458400248325734 39.919170818489135 0 0 0
1543 12 1 9.417719157211717 11.099197078150647 41.268283740696816 0 0 0
1544 12 1 10.37699497837565 10.310199267912852 42.05369516963205 0 0 0
1545 12 1 11.73334715408137 10.988013859366301 42.06397757270812 0 0 0
7685 50 1 2.4286327225484015 0.1876218454070926 40.72182482650215 0 0 0
2282 56 1 10.078651417796948 22.44348423744029 30.41434085415512 0 0 1
1286 61 1 5.824782935499706 11.56345565341311 31.156564962586156 0 0 0
7593 48 1 4.763689903131384 0.27898091974387923 34.552040708063096 0 0 0
822 5 1 11.563916853702905 4.187145217030738 32.91687678287658 0 0 1
823 5 1 12.709107915406571 3.8015989769204994 33.798748465274215 0 0 1
2816 9 1 17.286233555242262 24.662797425940575 38.91292688105615 0 -1 0
8818 57 1 10.117932625799755 8.456529165183674 45.32914156475262 0 0 0
7607 48 1 12.678222348624738 22.03321866934111 47.131952096435384 0 -1 0
1756 12 1 4.792961365455366 14.804121080475936 30.54045690106392 0 0 0
1757 12 1 5.8791499846548945 15.750142810929217 31.01572399879984 0 0 0
1758 12 1 6.722317550281889 15.20300487268801 32.08743035779249 0 0 0
1759 45 1 11.972436747034246 17.844953438989286 33.20613915356553 0 0 0
1760 45 1 12.758487934277706 16.78415002269174 33.953062417483984 0 0 0
1761 45 1 12.090287638088109 16.400196866446006 35.203828460811266 0 0 0
1762 45 1 13.15012540235413 15.929575498732067 36.0805570730985 0 0 0
1763 45 1 12.542498972793211 15.18947734418834 37.31533354808515 0 0 0
1764 45 1 13.680920891521621 14.502469468849185 38.15463801129597 0 0 0
1765 45 1 13.019267611811753 13.640704134055413 39.17181842191032 0 0 0
1766 45 1 14.059362030518095 12.818151638690043 39.87585214643944 0 0 0
1767 45 1 15.021175583367905 13.728241837204125 40.570025463357204 0 0 0
1768 45 1 15.797840894499966 13.12495823790499 41.75858450524385 0 0 0
8802 57 1 0.649685319862796 13.048927259148797 31.571732530833412 0 0 0
610 6 1 18.81846555302111 1.0588845565686242 43.7631840161235 0 0 0
9494 51 1 2.7950349763923894 22.114968280142364 33.01852005527521 0 0 0
7890 7 1 2.87118904462646 4.449394211986583 33.27767239450268 1 0 1
8895 44 1 3.288743666392163 11.274290090445142 43.498797310035954 0 0 0
1980 45 1 10.723041786860264 18.253921569223714 30.497193925314363 0 0 0
1981 45 1 11.618472265103991 19.31695156764343 31.19535279791117 0 0 0
1982 45 1 12.595305569997466 18.34439246614893 31.92437299678647 0 0 0
1983 14 1 9.823568605464631 17.55629412966452 37.763168078009805 0 0 0
1984 14 1 9.294940384863878 16.892735281075907 39.04657425163295 0 0 0
1985 14 1 10.369030099119392 15.989985214185001 39.7419384863617 0 0 0
1986 14 1 9.928662423105484 15.55142872096411 41.13237125813938 0 0 0
1987 14 1 10.929710098776185 14.829784470036282 41.95478499679713 0 0 0
1988 14 1 12.020821533860621 15.823967404008291 42.39392844483128 0 0 0
1989 14 1 13.08824118931835 15.115326891008541 43.12783380565283 0 0 0
1990 14 1 14.221841848058839 15.978968639060849 43.64911138231693 0 0 0
1991 14 1 14.95213873389158 15.329933435297704 44.87366952368376 0 0 0
1992 14 1 16.28423955136882 15.954094610199272 45.255649621164615 0 0 0
9 2 1 16.012427336407743 19.805523436311837 46.483252288303945 0 -1 0
8899 44 1 5.336254952789474 10.358004718823976 46.898925457662955 0 0 0
2368 16 1 17.442507502040105 20.22277644138467 38.92413196479999 0 -1 0
4184 24 1 18.40445625799489 18.309408234781042 29.7216675414737 0 0 0
9282 61 1 3.1106158420050196 15.588161832650393 44.13137541622737 0 0 0
2583 15 1 14.65962421757296 26.064826108906885 29.658333992036685 0 -1 1
2586 16 1 16.31844083586376 24.087617158942265 32.57621505544296 0 -1 0
8423 2 1 5.45546477605361 8.616610431893104 35.27863165631594 0 0 0
2202 14 1 7.814026527226787 20.80095004936128 32.669361477249964 0 0 0
2203 14 1 8.922287450275583 20.206899525298404 33.62415588525526 0 0 0
2204 14 1 8.368791727642108 19.363231995720216 34.74262986688631 0 0 0
2205 14 1 9.430570857283973 19.06995495640937 35.701056478988065 0 0 0
2206 14 1 8.819675287918525 18.312352943464145 36.876139860099364 0 0 0
2286 14 1 12.802831660015059 18.270096536758636 39.27093112072883 0 0 0
2287 14 1 13.913696382693999 17.597362159898626 40.080025352382236 0 0 0
2288 14 1 15.017387872163429 18.459102530506847 40.67623089866824 0 0 0
2289 14 1 16.1474275744167 17.715615102867815 41.42988634496441 0 0 0
2290 14 1 17.213478881463413 18.559248695083568 42.03566369095999 0 0 0
854 8 1 16.81145517028562 2.2473056596362317 46.40109299777514 0 0 0
835 8 1 3.7915154376924085 6.662916963958651 30.00361630307098 0 0 0
7589 48 1 0.48838612813555443 26.48835592766738 31.778651224924296 1 -1 0
8433 2 1 8.99531515285045 2.9745652669390332 45.06960258108245 0 0 0
8125 39 1 2.141189113300502 5.876290455279416 36.93739357329968 1 0 0
9199 60 1 8.666112010592505 13.049255671145344 44.168775924390296 0 0 0
7683 50 1 1.7748740188994585 1.2460506321567086 38.525339324598214 0 0 0
9280 61 1 2.679875703037564 16.400274245984036 41.75458764588375 0 0 0
8811 57 1 6.171345157851396 10.48188965387221 39.25961399540144 0 0 0
2361 14 1 12.17922706650686 21.1442533275171 35.178235797344215 0 0 0
2362 14 1 13.1622365239064 20.234458534110956 35.916963273247134 0 0 0
2363 14 1 12.509000365173602 19.628248415611772 37.15015361253411 0 0 0
2364 14 1 13.379641370362702 18.736534197295263 37.97525790184321 0 0 0
2365 16 1 15.883933380901635 21.72249524796845 35.5867060010464 0 -1 0
2366 16 1 16.914904493885462 21.365783082060396 36.6487987219232 0 -1 0
2367 16 1 16.38851972914561 20.734517959158875 37.96124258798703 0 -1 0
1533 11 1 10.20817680207019 13.531412451401028 30.56251727275422 0 0 0
313 6 1 17.94462030435005 22.426488719113582 43.36415346606236 0 -1 0
7298 48 1 2.39725453334621 22.933244175710637 39.15956160101097 0 -1 0
10 2 1 17.425739659298316 19.70834113988948 46.84490847441634 0 -1 0
1993 14 1 16.89602007815999 15.627013022862457 46.539972033905386 0 0 0
7299 48 1 1.820614854674844 21.936859634391848 40.095925092229024 0 -1 0
2588 16 1 16.645387049757737 22.553026666056084 34.586015446138305 0 -1 0
7690 50 1 4.0762525451825615 23.857888185377124 46.07965899121285 0 -1 0
824 5 1 12.230436915886065 3.211403914936267 35.08022419921106 0 0 1
8806 57 1 4.72218351880989 13.572020296341337 34.262072512623725 0 0 0
601 57 1 5.876205753531388 2.569358619591426 31.065160684522407 0 0 0
2813 9 1 16.0483021282951 0.28298265992704225 35.88542748987217 0 0 0
2814 9 1 16.914441167811248 25.942890388301677 36.68588978315607 0 -1 0
2815 9 1 16.305858184621172 25.25574506907298 37.95853643768368 0 -1 0
9285 61 1 5.954382594997762 15.09347719246908 46.343879047214386 0 0 0
9492 51 1 0.7942646344572244 21.73446927347245 31.58972179171615 1 0 0
8893 44 1 2.902818570069661 12.491972702443494 41.315388171975364 0 0 0
2199 13 1 4.837482479170041 19.398905150935743 30.764706101416447 0 0 1
9496 51 1 4.965155177785667 22.437439047824412 34.3346472724121 0 0 0
2890 9 1 15.542838882092513 1.4273803339290607 33.63478642999558 0 0 0
2891 9 1 16.439599266139133 0.5544445655760514 34.420959822224646 0 0 0
7895 7 1 5.782429925190955 2.511840662283437 37.93017098155694 1 0 1
4032 28 1 17.147580561325984 12.786651634091267 36.56542186308487 0 0 0
7303 48 1 3.3765111767346365 19.897955981190954 44.495199201752854 0 -1 0
4029 28 1 15.490763372822324 14.513261683501923 33.43442286782301 0 0 0
3195 19 1 15.340215105274137 7.108800998369111 31.334468840323346 0 0 0
3196 19 1 16.09553786728796 6.165356720008342 32.25152247018884 0 0 0
3197 19 1 15.53497380852388 5.945771153177315 33.65094723324052 0 0 0
3198 19 1 16.3881839733111 4.925797108005004 34.38604520815552 0 0 0
3199 19 1 15.853383426271197 4.669491303673838 35.78531655656869 0 0 0
3200 19 1 16.68722809829922 3.584206943953776 36.373951930220514 0 0 0
216 17 1 5.8894157616887295 24.860208821356313 31.088295511263702 0 -1 1
8422 2 1 4.387230899269278 9.274496879812784 34.39756285530705 0 0 0
395 57 1 17.770724208753297 25.66962547687759 46.94345646815213 0 -1 0
4035 28 1 18.63795443337925 12.031494087574783 38.85307081408452 0 0 0
9503 51 1 6.7883066175532 18.002770655842028 41.34598770940451 0 0 0
8817 57 1 8.867290419332413 7.689024101853952 44.998029450073304 0 0 0
3721 22 1 15.64992726720363 12.109876941191189 29.974831712851632 0 0 0
9507 51 1 8.540736932679422 16.39078139333927 44.378997671854194 0 0 0
3643 22 1 15.043898619277128 11.35634799646733 31.170731050426127 0 0 0
3644 22 1 15.939965016110614 10.42194959120468 31.865248253536226 0 0 0
3645 22 1 15.546988630861055 10.007868117582941 33.296852460824795 0 0 0
3646 22 1 16.52991377061967 9.30772724294458 34.14652968198472 0 0 0
3647 22 1 16.108281750629217 9.105344915933504 35.58817629467388 0 0 0
3648 22 1 16.799146854626915 8.048362812116434 36.33872536254859 0 0 0
847 8 1 9.613883597677459 1.9480731050030011 40.980737295615704 0 0 0
1546 12 1 12.667136699769351 10.338464975641683 43.023996579705155 0 0 0
7590 48 1 1.5921762506416572 25.75399862862069 32.478901309172564 0 -1 0
7889 7 1 1.7338780534381049 3.6585255057705615 32.75087800924334 1 0 1
2889 9 1 16.165559554746725 1.778945225751115 32.27009282194283 0 0 0
819 5 1 9.939175039911836 4.638759047462286 30.40880962297107 0 0 1
214 17 1 3.7538482343064876 24.58175503805405 29.858804953389757 0 -1 1
7896 31 1 5.386447843666406 2.1658682392167274 39.34415282796737 1 0 0
8507 60 1 1.6398637444668187 10.905591959083377 35.955720259096466 1 0 0
9278 61 1 2.5966332448501777 17.706909285615055 39.471513993209776 0 0 0
9508 51 1 9.710032514620215 17.2838063604754 44.81644811701217 0 0 0
7892 7 1 4.8913485913748245 4.61026805191206 34.6902841301238 1 0 1
3201 19 1 16.082669974025585 3.4756876034021964 37.78051393231441 0 0 0
4030 28 1 16.511692105171203 14.04395641681693 34.48708117097959 0 0 0
4031 28 1 15.986811029634417 13.306728094640855 35.674544646820465 0 0 0
8514 60 1 3.4106154553189643 6.962579304060618 43.78884556478957 0 0 0
3202 19 1 16.903572835809015 2.568907828764502 38.67591028132417 0 0 0
7905 31 1 12.233129228436798 25.749292496424786 47.21225687287708 0 -1 0
820 5 1 10.981191585694562 5.688258989785004 30.965467584579894 0 0 1
8435 2 1 10.980778791777151 3.1940314037541175 46.51367841199031 0 0 0
7592 48 1 3.86381158710177 26.067910362374096 33.758053150777364 0 -1 0
9186 60 1 1.3960432562819063 16.705037099492724 32.59617164461724 0 0 0
4407 28 1 15.859141040113059 17.719343265451627 35.743926403087336 0 0 0
4408 28 1 16.79013563200703 17.428943747130397 36.93893918602241 0 0 0
4409 28 1 16.294383653344724 16.413563203349298 37.903395059063655 0 0 0
8421 2 1 3.462894957091183 8.134866696047283 34.032497757648 0 0 0
8509 60 1 1.7710126291426231 9.520339439601628 38.08149523249629 1 0 0
9276 61 1 2.351694123171398 18.851908647371456 37.3177513407651 0 0 0
843 8 1 8.765222132559659 4.936863585509568 36.85659670966932 0 0 0
7899 31 1 7.131745075095704 26.549960233182624 41.98550696261487 1 -1 0
4484 28 1 15.678683787708747 18.920169957546282 33.53855961475571 0 0 0
4485 28 1 16.643243899358325 18.406288346599748 34.59802137279056 0 0 0
2283 56 1 11.195023429999107 23.437989730987013 30.75191750663465 0 0 1
1994 14 1 18.382562659930777 15.932533044147744 46.718672275081104 0 0 0
7304 48 1 3.279337871908254 20.483142079445944 45.86972380036543 0 -1 0
7898 31 1 6.096671661662843 0.8627075207186696 41.55392527813802 1 0 0
2284 56 1 12.387362718797327 22.783804240113138 31.533721921453292 0 0 1
9195 60 1 6.057233269158981 14.859936369357994 40.79967760734222 0 0 0
2969 46 1 15.6500199139052 2.962454457288001 30.078258591315493 0 0 1
9194 60 1 6.5317724855659645 15.13089309959433 39.31320336344168 0 0 0
3418 19 1 15.901614186634855 7.417436518521097 29.966821164041683 0 0 0
3649 22 1 16.004178949988088 7.697704576820621 37.627045891752125 0 0 0
8517 60 1 5.0093844538083605 6.557895749433363 46.074916307366095 0 0 0
3650 22 1 16.84088659915842 6.813478792175936 38.54814826234933 0 0 0
9283 61 1 3.7567592092455655 16.18645619321944 45.39248316517717 0 0 0
9501 51 1 5.86681761464018 20.11003547925716 40.109414776544845 0 0 0
8816 57 1 8.179829711483295 8.497348990520006 43.908567547765756 0 0 0
8819 57 1 11.041028958692273 7.838569341486432 46.35929477214398 0 0 0
8807 57 1 5.766312163004488 12.809738727687114 35.02919612389026 0 0 0
1549 12 1 15.46653566031969 11.525295064453154 45.236440672199066 0 0 0
9498 51 1 5.297213556486926 21.512785386441816 36.58418830224771 0 0 0
845 8 1 9.00884609886334 3.6400406777274954 39.15013268781755 0 0 0
9188 60 1 3.5603671893504543 16.840862174337065 33.89590608238891 0 0 0
7687 50 1 3.1421269502795295 26.012635200531456 42.94570172020953 0 -1 0
1769 45 1 17.221141634946772 13.751171333542814 41.66388523464734 0 0 0
7305 48 1 4.593378176045682 20.421637778877606 46.566952046914714 0 -1 0
9198 60 1 7.247652004947839 12.566945600620995 43.844013069997445 0 0 0
850 8 1 12.709989252307231 1.7047847133911267 43.53852245195313 0 0 0
7684 50 1 2.6133246154000327 0.23701383815037885 39.187515431863915 0 0 0
3203 19 1 18.139530176700102 3.3248645475056255 39.14017481385291 0 0 0
7300 48 1 2.694261449996185 21.99855108310541 41.242859239376806 0 -1 0
9192 60 1 6.006154476538322 16.234878047922948 37.13192862800791 0 0 0
2360 14 1 12.794609656651405 21.48917827634105 33.78608948501007 0 0 0
8809 57 1 6.2343055453905825 11.734167140591119 37.227464004905855 0 0 0
4564 29 1 15.487139937176112 20.30486707347402 31.592906233120736 0 0 1
8515 60 1 2.647475115172432 6.458976042416722 44.98376691152197 0 0 0
9190 60 1 5.611232705369198 17.551705781501777 35.10472251707526 0 0 0
9193 60 1 5.526168182096604 15.84945380503229 38.48892151644238 0 0 0
826 6 1 12.550833103539558 1.8792010584698484 37.013770884037555 0 0 0
849 8 1 11.763527025960375 2.354036719370316 42.54653776078149 0 0 0
9185 60 1 0.14272315630686627 17.367195074519024 32.017304916652954 0 0 0
853 8 1 15.822413024693493 2.811838276574653 45.43068089410589 0 0 0
8896 44 1 2.5531360944648434 11.820746343196083 44.65719162903688 0 0 0
7691 50 1 5.429075964820014 24.19838697137047 46.57719973933462 0 -1 0
1550 12 1 16.394435688421684 10.748499028412798 46.215710899987215 0 0 0
8129 39 1 2.8220506960844065 3.7587009667071696 41.50649090127142 0 0 0
7606 48 1 11.444098661194433 21.245504641181277 46.69813140987432 0 -1 0
8810 57 1 5.493428924864757 11.544245581891403 38.5210862906834 0 0 0
8512 60 1 3.1180676565342886 7.9173456068719 41.4110797474175 0 0 0
8516 60 1 3.506292901841017 6.858185836038735 46.239983560142804 0 0 0
8511 60 1 2.1020753524282827 8.16551115646401 40.29340669337856 0 0 0
9187 60 1 2.489229386440449 17.59821395668857 33.07761984657445 0 0 0
215 17 1 4.82435853764215 23.85474518197821 30.665095985810964 0 -1 1
852 8 1 14.710448573274626 1.9173612754332776 44.98624150068134 0 0 0
7595 48 1 5.229678896945662 25.983093445782654 36.87143055321513 0 -1 0
7596 48 1 5.899124630173738 24.788930997981893 37.49727339890408 0 -1 0
7597 48 1 5.441859028387361 24.54025410618271 38.986907416399205 0 -1 0
7598 48 1 6.405438752678119 23.681849311506674 39.77330441925615 0 -1 0
7599 48 1 5.833313487681107 23.328206358612285 41.091418553400885 0 -1 0
7600 48 1 6.842081152693068 22.78785876001812 42.09793332746386 0 -1 0
7601 48 1 6.296627601094167 22.207704331538476 43.38052347271929 0 -1 0
7602 48 1 7.3907645290502595 21.35041950453726 43.96648424723772 0 -1 0
7603 48 1 8.463783778632848 22.216329362844228 44.43448346071486 0 -1 0
7686 50 1 3.1607370793510627 25.71660057307355 41.466085887826196 0 -1 0
1548 12 1 14.61064441776698 10.506163296221054 44.568452715902424 0 0 0
8127 39 1 2.5263115617663745 4.67039675441348 39.18770731371477 1 0 0
2291 14 1 17.855641691374434 17.96461752855916 43.3301063344282 0 0 0
9506 51 1 7.632538847118842 17.0044342016063 43.2661030948273 0 0 0
9197 60 1 6.289157449406066 13.533229744370377 43.05697209979055 0 0 0
844 8 1 9.585964179172267 4.069167645282312 37.80340311827454 0 0 0
7605 48 1 10.579213361167046 22.089087772005158 45.85246699008819 0 -1 0
1209 9 1 10.251223425687918 9.131358037476861 30.076058851873935 0 0 0
8888 44 1 1.2053858162319617 15.482396575755718 36.14728539485893 1 0 0
8803 57 1 1.4308532968940122 12.508090268713577 32.71123747148003 0 0 0
1285 61 1 4.681980069327532 10.673445610598206 30.831285899654475 0 0 0
8130 39 1 2.3037302460119284 3.461834016702167 42.915465341675 0 0 0
7688 50 1 3.996503804876441 25.060137142805647 43.788446396331224 0 -1 0
8513 60 1 2.4771990549305927 7.125491992862055 42.55507048563122 0 0 0
9201 60 1 10.623472965542453 13.035046179796346 45.55417651347206 0 0 0
9191 60 1 4.994308250570961 16.9233913578118 36.2607830405819 0 0 0
7306 48 1 5.09572785930554 18.99246966667172 46.49490745651137 0 -1 0
848 8 1 10.791388185330176 1.4405411988103538 41.85631161688727 0 0 0
7900 31 1 7.253472507062677 26.643653651625105 43.53569284915779 0 -1 0
7902 31 1 9.50419557453975 26.226412393582205 44.595858374120766 0 -1 0
7903 31 1 10.389119313755979 25.397383001157575 45.51532557377081 0 -1 0
7904 31 1 11.557399561391449 26.20016711783676 45.99885385699821 0 -1 0
8434 2 1 10.120048494934348 3.9277871923310896 45.52090413344286 0 0 0
8894 44 1 2.5336275350325494 11.306033172663653 42.170890020725246 0 0 0
8432 2 1 8.258804001565716 4.054258689769616 44.249828176783204 0 0 0