LAMMPS data file via write_data, version 29 Oct 2020, timestep = 32000000

10752 atoms
2 atom types
10752 bonds
3 bond types
10752 angles
3 angle types
10752 dihedrals
3 dihedral types

-1.4019591925125496e-01 3.1008115919238300e+01 xlo xhi
-1.2113307625790526e-01 2.6791853076229280e+01 ylo yhi
 9.7511612634100402e+00 2.7324819873588370e+02 zlo zhi

Masses

1 14
2 15

Pair Coeffs # lj/cut/omp

1 0.0914 3.95
2 0.1947 3.75

Bond Coeffs # harmonic/omp

1 449.5 1.53
2 449.5 1.53
3 449.5 1.53

Angle Coeffs # harmonic/omp

1 62.0967 114
2 62.0967 114
3 62.0967 114

Dihedral Coeffs # opls/omp

1 1.411 -0.271 3.145 0
2 1.411 -0.271 3.145 0
3 1.411 -0.271 3.145 0

Atoms # molecular

1            1            1      23.7624       0.7831      9.76876
2            1            1      22.8953      1.50646      10.8305
3            1            1      22.7275     0.782698      12.1726
4            1            1      22.2739         1.69      13.3116
5            1            1      21.8918      0.85461      14.5714
6            1            1      21.3486      1.72628      15.7543
7            1            1      21.0154     0.756736      16.9059
8            1            1       20.341      1.34956      18.1175
9            1            1      20.0815     0.429208       19.262
10            1            1      19.4056      1.19846      20.3798
11            1            1      19.2568     0.444153      21.6984
12            1            1      18.4396      1.33451      22.6597
13            1            1      18.0319     0.560107      23.9192
14            1            1      17.5067      1.43636      25.0642
15            1            1      16.9641     0.604875      26.2519
16            1            1      16.7439      1.42891      27.5213
17            1            1      16.2297     0.642186      28.7327
18            1            1      15.7951      1.48491      29.9196
19            1            1      15.0413     0.557567      30.9183
20            1            1      14.6459      1.28635      32.1434
21            1            1       14.105     0.469244      33.2985
22            1            1      13.7369      1.33083      34.4895
23            1            1      13.4375     0.487871       35.687
24            1            1      13.0024      1.36373       36.864
25            1            1      12.5582      0.70999      38.2208
26            1            1      12.0602      1.54262      39.4165
27            1            1      11.4142       0.6418      40.5172
28            1            1      10.8828      1.46275      41.7024
29            1            1      10.2488     0.670771      42.8568
30            1            1      9.78536      1.62197      44.0069
31            1            1        9.248      0.88506      45.2286
32            1            1      8.83944      1.85469      46.3463
33            1            1      8.87146      1.02398      47.6006
34            1            1      8.19377      1.72393      48.7161
35            1            1      7.90198     0.974502      50.0125
36            1            1      7.33481      1.89276      51.0764
37            1            1      6.77644      1.04469      52.2096
38            1            1      6.55943      1.93019      53.4208
39            1            1      6.50833      1.14726      54.6495
40            1            1      6.83822      1.78071      55.9739
41            1            1      6.78179     0.919837      57.2562
42            1            1      7.06655      1.69892      58.5885
43            1            1      7.84191      1.04931      59.7027
44            1            1       8.0543      1.86568      60.9487
45            1            1      8.63108      1.11148      62.1541
46            1            1      8.95008      2.04421      63.2915
47            1            1      9.53906      1.25973      64.4689
48            1            1      9.81435      2.00655      65.7698
49            1            1      10.2583      1.11205      66.9629
50            1            1       10.756      1.96009      68.1717
51            1            1      11.1809      1.13689      69.3584
52            1            1      12.0671      1.86403      70.3834
53            1            1      12.3559      1.18226      71.7709
54            1            1      12.9412      2.17619      72.7805
55            1            1       13.361      1.44288      74.0371
56            1            1      14.1788      2.30463      75.0739
57            1            1      14.4952      1.53467      76.3543
58            1            1      15.2279      2.35685       77.404
59            1            1       15.391       1.5313      78.6894
60            1            1      16.1328      2.25366       79.791
61            1            1      16.5458      1.42185      81.0282
62            1            1      17.0225      2.25515      82.2163
63            1            1      17.6956      1.39567      83.3425
64            1            1      17.8446      2.21043      84.6181
65            1            1      18.5649      1.45008      85.7444
66            1            1      18.9965      2.36203      86.9289
67            1            1      19.4889      1.54632      88.1494
68            1            1      20.0413      2.29315      89.4055
69            1            1      20.4135      1.41713      90.6284
70            1            1      20.8724      2.19598      91.8397
71            1            1      21.3641      1.38473      93.0012
72            1            1      21.6345      2.08886      94.3584
73            1            1      22.2122      1.22765      95.4099
74            1            1      22.4791      2.00165      96.6496
75            1            1      23.1828      1.30206      97.8178
76            1            1      23.4525      2.18837      99.0151
77             1             1       24.1815       1.51924        100.18
78             1             1       24.5945       2.37197       101.366
79             1             1       25.3714       1.61004       102.394
80             1             1       25.7016       2.20175       103.775
81             1             1       26.3005        1.1768       104.717
82             1             1       26.5194       1.79774       106.112
83             1             1       27.5244       1.04078       106.974
84             1             1       27.6968       1.77076       108.286
85             1             1       28.1534      0.835761       109.428
86             1             1       28.5818       1.69956       110.608
87             1             1       29.0351      0.965386       111.873
88             1             1       29.4636        1.8395       113.064
89             1             1       30.3532       1.01612       114.071
90             1             1       30.4265       1.83643       115.376
91             1             1       0.12702       1.11558        116.41
92             1             1       0.23994       1.84924       117.777
93             1             1       1.05968        1.0752       118.778
94             1             1      0.933628       1.77314       120.136
95             1             1       1.55357      0.996495       121.299
96             1             1       2.31274       1.86188       122.295
97             1             1       2.64536      0.970968       123.571
98             1             1       3.57172       1.60784       124.578
99             1             1       3.86378      0.745177       125.799
100             1             1       4.57527       1.56836       126.889
101             1             1       4.92928      0.845464       128.168
102             1             1        5.5449       1.77431       129.239
103             1             1       5.96451      0.991495       130.469
104             1             1       6.45284       1.90313       131.621
105             1             1       7.06999       1.14367        132.84
106             1             1       7.49618       2.05438       133.978
107             1             1       8.36012       1.22723       134.873
108             1             1       8.73883       1.97967       136.187
109             1             1       9.24423      0.990219       137.239
110             1             1       9.32279       1.52079       138.705
111             1             1        10.461      0.966361       139.574
112             1             1       10.2031       1.23604       141.095
113             1             1       11.3232      0.690944       142.008
114             1             1       11.2761       1.16188       143.483
115             1             1       12.5285      0.831122       144.364
116             1             1       12.4522       1.55709       145.735
117             1             1        13.364      0.847481       146.779
118             1             1       13.4153       1.57715        148.05
119             1             1       14.4326      0.904845       148.884
120             1             1       14.1953       1.28276       150.373
121             1             1       15.3317      0.765994        151.23
122             1             1        15.312       1.32101       152.654
123             1             1        16.322      0.710246       153.586
124             1             1       16.2576       1.18872        155.08
125             1             1        17.225      0.464137       156.017
126             1             1       17.3795       1.16805       157.368
127             1             1       18.1839      0.350782       158.378
128             1             1        18.425       1.05563       159.696
129             1             1       19.3995      0.311319       160.647
130             1             1       19.5313       1.24869       161.822
131             1             1       20.1566      0.537389       163.017
132             1             1       20.5101       1.46734       164.194
133             1             1       21.2691      0.706747       165.304
134             1             1       21.5917       1.39353       166.608
135             1             1       22.3928      0.528635       167.554
136             1             1       22.5147       1.16795        168.93
137             1             1       23.1124      0.318114        170.05
138             1             1       23.3472       1.19952       171.303
139             1             1       24.1079      0.556107       172.421
140             1             1       24.2579       1.39325       173.648
141             1             1       25.2735       0.70567       174.589
142             1             1       25.4172       1.43264       175.891
143             1             1       26.1823      0.615092       176.962
144             1             1       26.2521       1.31705       178.319
145             1             1       26.8661      0.518988       179.402
146             1             1       27.1858       1.39472       180.634
147             1             1       27.8477      0.616215       181.698
148             1             1       27.7728       1.26962       183.054
149             1             1       28.5011      0.454682       184.151
150             1             1       28.7379       1.14915       185.465
151             1             1       28.1655      0.349609       186.686
152             1             1       28.4419      0.943964       188.036
153             1             1       27.7722      0.227474       189.217
154             1             1       27.8891       1.05444       190.529
155             1             1       27.4398      0.347374       191.796
156             1             1       27.1998        1.2256       193.047
157             1             1       26.6788      0.402811       194.221
158             1             1       26.5794       1.19609       195.548
159             1             1       25.5908       0.53364       196.516
160             1             1       25.1947       1.37123       197.723
161             1             1        24.543      0.559489       198.857
162             1             1       24.0656       1.45901       200.036
163             1             1       23.2889      0.609489       201.144
164             1             1       23.3138       1.35562        202.55
165             1             1       22.6283      0.363011       203.511
166             1             1       22.2648      0.964185       204.823
167             1             1       21.6122      0.142738       205.908
168             1             1       21.4853      0.918805       207.193
169             1             1       20.6229     0.0969287       208.142
170             1             1       20.5021       0.75619       209.523
171             1             1       19.4021      0.112979       210.351
172             1             1       19.2369      0.792153       211.693
173             1             1       18.3032      0.221916       212.729
174             1             1       18.3524      0.949754        214.06
175             1             1       17.5756      0.182191       215.092
176             1             1       17.1457       1.03912       216.273
177             1             1       16.4964      0.172822       217.326
178             1             1       16.4222      0.892383       218.671
179             1             1       15.8144      0.046223       219.729
180             1             1       15.5751      0.595138       221.174
181             1             1       14.6805       26.6133       222.019
182             1             1       14.2643       0.61791       223.174
183             1             1       13.6202        26.737       224.301
184             1             1       13.2487      0.679653       225.497
185             1             1       12.5171    -0.0939174       226.618
186             1             1        12.434      0.760185       227.904
187             1             1       11.7877       26.8334       229.017
188             1             1       11.3531      0.668799       230.234
189             1             1       10.5867       26.7252       231.241
190             1             1       10.0077      0.654307       232.322
191             1             1       9.53878    0.00117708       233.599
192             1             1       9.00259      0.984281       234.669
193             1             1       8.42077      0.250712       235.878
194             1             1       7.80598       1.10115       236.957
195             1             1       7.60309       0.30911       238.225
196             1             1       6.92034       1.12832       239.363
197             1             1       6.60975      0.188781       240.525
198             1             1       6.02433      0.909865       241.782
199             1             1       5.72808     0.0989806       243.075
200             1             1       4.90615      0.861522       244.134
201             1             1       4.64073    -0.0839685       245.346
202             1             1       3.80736      0.624057       246.347
203             1             1       3.72536    -0.0985672       247.645
204             1             1       3.02453      0.731353         248.7
205             1             1       2.70375      0.120058       250.046
206             1             1       2.10941       1.07964       251.031
207             1             1        1.6655      0.347038        252.31
208             1             1      0.774458       1.16144       253.266
209             1             1      0.512556      0.276391       254.485
210             1             1     -0.110575       1.06473       255.647
211             1             1       30.8964      0.199738       256.905
212             1             1       30.1148      0.957515       257.968
213             1             1       29.9755       0.35746       259.396
214             1             1       29.1602       1.30825       260.193
215             1             1        28.867      0.562868       261.539
216             1             1       28.2561       1.41099       262.677
217             1             1       27.9603       0.60202       263.957
218             1             1       27.2439       1.36822       265.115
219             1             1       26.9805      0.590294       266.423
220             1             1       25.6717       1.04083       267.224
221             1             1       25.6842      0.600543       268.643
222             1             1       24.6422       1.36586       269.532
223             1             1       24.6661      0.773798       270.943
224             1             1       23.7693       1.50633       271.944
225             2             1       28.5643        3.4772       271.173
226             2             1       27.9835       2.59829       272.284
227             2             1       27.4576       3.40073       9.95771
228             2             1       27.2019       2.60359       11.2222
229             2             1       26.4308       3.34716       12.3315
230             2             1         26.16        2.6018       13.6577
231             2             1       25.2369       3.16861       14.7448
232             2             1       25.0684        2.3652       15.9599
233             2             1       24.3787        3.1648       17.0586
234             2             1       24.1868       2.51212       18.4507
235             2             1       23.3107       3.33961       19.4485
236             2             1       23.1685        2.6515       20.8075
237             2             1       22.2934       3.39096         21.78
238             2             1       22.1019       2.76208         23.16
239             2             1       21.3261       3.57934       24.2021
240             2             1       21.1296       2.85125       25.5556
241             2             1       20.3066       3.59511       26.5738
242             2             1       20.2176       2.95454       27.9968
243             2             1       19.2853       3.81006       28.8282
244             2             1       19.3152       3.10856       30.1994
245             2             1       18.3042       3.73968       31.1305
246             2             1       18.4243       3.04431       32.5065
247             2             1       17.3633       3.69892       33.3543
248             2             1       17.4339        2.9928       34.7325
249             2             1       16.6207       3.63149       35.8783
250             2             1       16.6481        2.9656        37.251
251             2             1       15.8776       3.80958       38.2969
252             2             1        15.765       3.07695       39.6875
253             2             1       15.0668        3.8563       40.6615
254             2             1       14.6839       3.05656        41.872
255             2             1       14.2019       3.98502       42.9402
256             2             1       13.6435       3.25861       44.1788
257             2             1       13.1421       4.05054       45.3376
258             2             1       12.7264       3.24854       46.5405
259             2             1       12.1183       4.15691       47.6151
260             2             1        11.909       3.31856       48.8659
261             2             1       11.3476        4.0812       50.0938
262             2             1       11.2858       3.16238       51.2491
263             2             1       10.8705       3.97119       52.4337
264             2             1       10.8157       3.20768       53.7458
265             2             1       10.4353       4.09862       54.9353
266             2             1        10.683       3.30695       56.2276
267             2             1       10.4983       3.96428       57.6078
268             2             1       11.1477       3.25725       58.7775
269             2             1       11.4646       4.18446       60.0052
270             2             1       12.0587       3.52681       61.2226
271             2             1       11.9969       4.12874       62.6005
272             2             1       12.9708       3.58104       63.6115
273             2             1       12.7377       4.07693       65.0321
274             2             1       13.8542       3.72581       65.9844
275             2             1       14.0546       4.56977       67.2293
276             2             1       15.0257       3.79628       68.1062
277             2             1       15.0064       4.29154       69.5497
278             2             1       15.7315       3.61158       70.6174
279             2             1         16.12       4.49996       71.7867
280             2             1       17.1953        3.8579       72.7354
281             2             1       17.4798       4.75012       73.9241
282             2             1       18.5083       4.10381       74.9208
283             2             1       18.4227       4.54699       76.3768
284             2             1       19.2166       3.69206        77.309
285             2             1       19.4648       4.40889       78.6428
286             2             1        20.112       3.60497       79.8329
287             2             1       20.4024        4.3746       81.0606
288             2             1       21.1523       3.65484       82.2036
289             2             1       21.3837       4.54543       83.3835
290             2             1       21.9808       3.76195       84.5881
291             2             1         22.57       4.62836       85.7417
292             2             1       23.1165       3.67253       86.7807
293             2             1       23.6488       4.45092       87.9918
294             2             1        24.017       3.64786       89.2716
295             2             1       24.4601       4.52729       90.4193
296             2             1       24.8458       3.71329       91.6726
297             2             1       24.9051       4.53568        93.002
298             2             1       25.5525       3.75741       94.1809
299             2             1          25.7       4.47316       95.4802
300             2             1       26.6989       3.85421       96.4966
301             2             1         26.78       4.43999       97.9117
302             2             1       27.7781       3.82497       98.8558
303             2             1       27.9457        4.4033       100.237
304             2             1       29.0687       3.67788       100.953
305             2             1       29.0698       4.39458       102.296
306             2             1       29.8117       3.66575       103.375
307             2             1       30.2086       4.47221        104.66
308             2             1       30.5143       3.51459       105.747
309             2             1       30.9377          4.19       107.101
310             2             1      0.380233       3.11777       108.042
311             2             1      0.489279       3.80206       109.373
312             2             1       1.53215       3.27595       110.393
313             2             1       1.34416        3.9144       111.754
314             2             1       2.51045       3.66127       112.676
315             2             1        2.3243       4.07944       114.131
316             2             1       3.43089       3.62693       114.957
317             2             1       3.17972       3.72747       116.467
318             2             1       4.25572        3.2265       117.356
319             2             1        4.2061       3.70424       118.763
320             2             1       5.40283       3.18506       119.579
321             2             1       5.35569       3.77448       120.977
322             2             1       6.49751       3.33657       121.894
323             2             1       6.40737       3.90136       123.305
324             2             1        7.5286       3.40175       124.192
325             2             1       7.30376       3.86829       125.643
326             2             1        8.3202       3.27798        126.63
327             2             1       8.06301       3.69083       128.096
328             2             1       9.13638       3.06027        129.02
329             2             1        9.3241       4.00366       130.232
330             2             1       10.3192       3.31567       131.112
331             2             1       10.3971       4.03227       132.461
332             2             1       11.4571       3.45849       133.447
333             2             1       11.5025       4.07075       134.857
334             2             1       12.4855       3.41054       135.829
335             2             1       12.4663        3.9055       137.259
336             2             1       13.4707       3.23498       138.245
337             2             1       13.4399       3.86977       139.632
338             2             1       14.4831       3.17198       140.555
339             2             1       14.5813       3.80959        141.96
340             2             1       15.5663       3.13012       142.837
341             2             1       15.6987        3.6435       144.258
342             2             1       16.4752       2.91783       145.366
343             2             1       16.5171       3.61675       146.687
344             2             1       17.5255       2.91481       147.629
345             2             1       17.3795       3.33092       149.092
346             2             1       18.5478        2.8242       149.936
347             2             1       18.5178       3.33107       151.361
348             2             1       19.6134       2.77049       152.318
349             2             1       19.4098       3.27884       153.732
350             2             1       20.5433       2.78685       154.635
351             2             1       20.3734        3.2624       156.071
352             2             1       21.4266       2.75383       157.066
353             2             1       21.3789       3.26017       158.492
354             2             1       22.6143       2.91064       159.336
355             2             1       22.5044       3.38731       160.809
356             2             1        23.558       2.85326       161.738
357             2             1       23.6214       3.44471       163.149
358             2             1       24.5886       2.71451         164.1
359             2             1       24.8233       3.41034       165.462
360             2             1       25.8456       2.78015       166.374
361             2             1       25.5899       3.00943       167.862
362             2             1       26.6502       2.53312        168.84
363             2             1        26.439       3.16855       170.228
364             2             1       27.3142       2.50208        171.26
365             2             1       27.5633       3.35005       172.399
366             2             1       28.6296       2.79838       173.306
367             2             1       28.8838       3.58548       174.592
368             2             1       29.5673       2.78515       175.651
369             2             1       29.7826       3.52159           177
370             2             1       30.3039       2.62663       178.114
371             2             1       30.7598        3.4334        179.34
372             2             1      0.244717       2.63714       180.452
373             2             1      0.307587       3.47463       181.773
374             2             1      0.798427       2.57948       182.903
375             2             1      0.937531       3.30325       184.192
376             2             1       1.53275        2.4885       185.377
377             2             1       1.22312       3.21535       186.675
378             2             1       1.41571       2.38971       187.946
379             2             1       1.06462        3.2389       189.092
380             2             1       1.26907       2.56835       190.421
381             2             1      0.717392       3.46954       191.438
382             2             1      0.534426        2.9703        192.86
383             2             1       30.8208       3.75897       193.815
384             2             1       30.3752       2.97452       195.048
385             2             1        29.739       3.75407       196.164
386             2             1       29.4295       2.96416       197.425
387             2             1       28.7366       3.71037       198.565
388             2             1       28.2279       2.82021        199.68
389             2             1        27.819        3.5456       200.951
390             2             1       27.2547       2.70186       202.065
391             2             1       26.6765       3.47127       203.235
392             2             1       26.1287       2.64765        204.38
393             2             1       25.4859       3.42462       205.507
394             2             1       25.0993       2.59117       206.736
395             2             1       24.4995       3.33186       207.993
396             2             1       24.0661       2.48778        209.16
397             2             1       23.7224       3.34576       210.316
398             2             1       23.2242       2.44445       211.453
399             2             1       22.7704       3.26096       212.599
400             2             1       22.2464         2.502       213.759
401             2             1       21.5005       3.28846       214.856
402             2             1       21.2305       2.43687       216.105