LAMMPS data file via write_data, version 23 Jun 2022, timestep = 11112117

8487 atoms
2 atom types
8471 bonds
3 bond types
8455 angles
3 angle types
8439 dihedrals
3 dihedral types

0 36.89775039 xlo xhi
0 26.67072 ylo yhi
38.57516069741483 198.17644370255908 zlo zhi
0 5.0214038775811805 0 xy xz yz

Masses

1 14
2 15

Pair Coeffs # lj/cut/omp

1 0.0914 3.95
2 0.1947 3.75

Bond Coeffs # harmonic/omp

1 449.5 1.53
2 449.5 1.53
3 449.5 1.53

Angle Coeffs # harmonic/omp

1 62.0967 114
2 62.0967 114
3 62.0967 114

Dihedral Coeffs # opls/omp

1 1.411 -0.271 3.145 0
2 1.411 -0.271 3.145 0
3 1.411 -0.271 3.145 0

Atoms # molecular

1 55 1 6.757039804883745 26.385294234738648 44.6317317049141 0 -1 0
2 55 1 7.654335743731177 25.7079424171158 45.61673960489529 0 -1 0
3 55 1 8.674663521518228 26.543897358494736 46.394750566730266 0 -1 0
4 55 1 9.396989138118839 25.661596463890298 47.49676883116111 0 -1 0
5 55 1 10.645240252194196 26.07793605840196 48.141906770020725 0 -1 0
6 55 1 11.158616695154645 25.133554322569516 49.2043893128599 0 -1 0
7 55 1 12.099451654377521 26.012035785393273 50.09463844464511 0 -1 0
971 60 1 3.7715123082708053 8.68980240764062 41.020808481452285 0 0 0
237 3 1 17.546910219727778 0.6137662567164833 50.26327289420596 0 0 0
8433 64 1 2.8578225686056973 24.210838779711498 44.86538422712015 0 0 0
232 3 1 13.19711119512818 1.9491567021123701 46.034133827149205 0 0 0
724 5 1 12.417664448986875 5.540861672735005 45.01137091440352 0 0 0
1680 11 1 6.026307926725061 16.28248564591978 43.23606622376743 0 0 0
3382 24 1 11.91897748226462 13.225293696438863 40.04193419175293 0 0 0
982 7 1 16.420693719938374 10.481075807145805 49.5640170709638 0 0 0
725 5 1 13.464452621093411 6.194066071849049 45.8649200264947 0 0 0
2713 51 1 12.88267801647352 7.845144758371679 40.86451576223962 0 0 0
5080 38 1 1.0105799548530003 6.068576902990275 52.88983407392515 0 0 0
220 55 1 2.8339312605062017 25.432537278179876 39.97636669935635 0 -1 0
221 55 1 3.3182988370465516 26.255570272539934 41.149869840310025 0 -1 0
222 55 1 4.406185265249827 25.55882009816772 42.05348123561987 0 -1 0
223 55 1 5.384419588884251 26.442903791342452 42.76689205204335 0 -1 0
224 55 1 6.08035642838386 25.449168192966106 43.69965726444179 0 -1 0
225 3 1 6.773471259716523 1.1669012736224178 39.87128857563921 0 0 0
226 3 1 7.613086464592049 2.127810710461979 40.75931129564755 0 0 0
227 3 1 8.722424438207296 1.3713642956725567 41.50215043402693 0 0 0
228 3 1 9.472722700151648 2.024301032474112 42.677464295447734 0 0 0
229 3 1 10.496127759400968 1.3328176801746476 43.57356849621158 0 0 0
230 3 1 11.490328907058467 2.184948139120408 44.295647106226745 0 0 0
231 3 1 12.115944622630096 1.2943074018399277 45.33325349984664 0 0 0
448 3 1 6.05874236342467 1.9438060044741983 38.76379917622904 0 0 0
2409 4 1 12.93955768997858 3.323231636653789 41.07873792103115 0 0 0
7976 60 1 9.08904793934884 18.823399081369754 52.585648800741005 0 0 0
7968 60 1 2.719260729621183 19.79106509282957 45.00191354713519 0 0 0
1678 11 1 3.9125069015819887 16.36329203328633 41.72908404213844 0 0 0
8436 64 1 5.20705518169085 23.10856794370542 47.997214312171835 0 0 0
2251 15 1 5.819977171699595 23.747175205745325 38.77375936082054 0 0 1
456 4 1 16.58702597406317 2.68982142910966 54.324401087773204 0 0 0
2714 51 1 13.653729930869778 8.782693928409255 41.81090888925576 0 0 0
1640 10 1 8.337827010265647 14.196046968121141 41.5168725600658 0 0 1
2263 31 1 17.900655094583158 25.211427810363688 46.41903434695155 0 -1 0
449 4 1 10.679561048976467 4.070963042974073 48.27418991028704 0 0 0
450 4 1 11.17029925789208 3.123705123331889 49.38109757864973 0 0 0
451 4 1 12.55288986419061 3.72737323152747 49.70035961548521 0 0 0
452 4 1 13.372861687283095 2.9441699904389953 50.66412090968178 0 0 0
453 4 1 14.125583018634705 3.7589563576815452 51.71749861179856 0 0 0
454 4 1 14.820063284647517 2.6654422286344928 52.48797159418652 0 0 0
662 52 1 0.9470723846748142 3.2627436399281065 38.68895683288017 0 0 1
2941 42 1 17.155860752905486 10.024135791308451 40.376612957806366 0 0 0
1418 9 1 5.09834538571864 12.652611352551382 42.680811462430576 0 0 0
4055 31 1 18.155849794391262 21.21357710249687 47.308485968338076 0 0 0
1414 47 1 1.4063527359128731 12.801715408650773 39.180095214285494 0 0 1
667 4 1 5.356300361680389 3.9379079078197563 43.2445729804048 0 0 0
728 5 1 15.863207455573525 5.101102549728026 48.6183582090821 0 0 0
1194 16 1 5.911723645418973 10.620683966583531 38.97764212933728 0 0 1
6616 12 1 6.978014253209249 0.7476175114200705 49.7177411971398 0 0 0
8435 64 1 4.5267638561187535 24.010218574497667 46.92300385061264 0 0 0
1978 64 1 4.943649209689028 21.59174696444905 42.79158036429005 0 0 0
6390 48 1 2.698823909360738 25.470806759684116 50.21253185000759 0 -1 0
3834 28 1 17.798284886471805 19.278731175905563 41.18828314056304 0 0 0
669 4 1 7.042927572184274 4.071291848173233 44.851386875560905 0 0 0
670 4 1 7.753303034280797 3.1756861506310092 45.89728046603917 0 0 0
671 4 1 8.86400150978261 3.9283586002615016 46.451733715689834 0 0 0
672 4 1 9.561907753602991 3.1950843534915667 47.598645833175645 0 0 0
1981 64 1 7.662088210529757 21.082342354241753 45.42491734219108 0 0 0
3605 29 1 16.951239148149117 14.173299138720417 40.930780340774795 0 0 1
1642 10 1 10.133802112200584 14.24348454410134 43.208106464109704 0 0 1
718 5 1 6.8533645093546305 5.575867609693405 39.89132030843391 0 0 0
719 5 1 8.136382228844926 6.242586185522105 40.497966786456885 0 0 0
720 5 1 8.549514200487565 5.48787326725575 41.70657205547894 0 0 0
721 5 1 9.664819599336164 6.276058214849051 42.36551685797132 0 0 0
722 5 1 10.520403118547273 5.622388276014016 43.39415436730243 0 0 0
8432 64 1 1.8845811839278261 23.28261496277193 44.166579362999336 0 0 0
3831 28 1 15.067798619665 18.671023413304592 38.798803954129575 0 0 0
233 3 1 13.960962150465653 0.8301213407271759 46.71501774026336 0 0 0
8186 62 1 5.230536933120974 21.575602455825607 53.13797579500535 0 0 0
6990 54 1 4.65580908931617 7.4305826393544585 51.75910063104869 0 0 0
7978 60 1 11.54985215095329 19.34855384634276 53.5494978163115 0 0 0
4281 32 1 15.57734423756774 23.33768319668986 38.9323861068802 0 0 0
7441 26 1 3.8639884869963885 12.991659079100712 50.899647044404006 0 0 0
1976 64 1 2.979758322430882 21.465930601532207 41.076050619366185 0 0 0
3159 24 1 12.509889779055957 12.40969635751382 41.26375843507906 0 0 0
752 60 1 7.642675242952899 7.578808161775394 45.72592964400326 0 0 0
753 60 1 8.796255401573001 8.401081086815806 46.27190772427471 0 0 0
754 60 1 9.580284128248286 7.541130843734973 47.273653075874456 0 0 0
755 60 1 10.71790584302968 8.394702112909199 47.9741180559406 0 0 0
756 60 1 11.484218170184601 7.589606942793105 48.949983005585594 0 0 0
757 60 1 12.532708870437308 8.399324727888342 49.70932670163529 0 0 0
758 60 1 13.088379868713853 7.423178280900823 50.754393582647126 0 0 0
759 60 1 14.128683329699776 8.0581474232282 51.523017475556124 0 0 0
760 60 1 14.426779389581979 7.312113698957257 52.85289248779225 0 0 0
729 5 1 16.573904428378388 5.816963312627786 49.76579598896987 0 0 0
3833 28 1 16.849262534548917 18.43375919533762 40.37016749065106 0 0 0
2039 3 1 15.950708087028362 23.779763653094516 49.8783768206602 0 0 0
1417 9 1 4.242356172925136 12.046639899110605 41.648013225566245 0 0 0
1721 8 1 3.1671154533846875 17.17755656613806 40.709417732571296 0 0 1
970 60 1 2.7954090582255398 7.759622764307913 40.32903941555931 0 0 0
664 52 1 2.7476813706396053 3.3547144433958977 40.31119608803471 0 0 1
2253 15 1 7.4765900307556725 24.093530727051352 40.649467315299894 0 0 1
4270 30 1 11.120499733684278 21.274865439658644 38.93488139516725 0 0 1
1427 9 1 17.786272305956754 14.631992224810086 51.649092145242136 0 0 0
6992 54 1 6.453768166769768 7.229876589732468 53.548101346922024 0 0 0
3825 27 1 12.804233244259988 16.806224341395072 41.05486529698819 0 0 1
974 60 1 5.956607562673031 7.454395236552033 43.84144992325638 0 0 0
975 60 1 6.97594679111681 8.296713115244396 44.492570822467385 0 0 0
976 7 1 10.981098718322857 10.568229684728687 44.17556802420481 0 0 0
977 7 1 12.335900879098615 10.102727712214529 44.6365957936756 0 0 0
978 7 1 12.958054622417135 10.678922128710322 45.77096968427103 0 0 0
979 7 1 13.90557392604759 9.793155909099184 46.633528369781104 0 0 0
980 7 1 14.709736333136673 10.438396432140289 47.768570902956284 0 0 0
981 7 1 15.63059186855296 9.556228677156584 48.61741375209501 0 0 0
972 60 1 4.136137538272985 7.894713762545768 42.20732175397987 0 0 0
3832 28 1 16.14823559712212 19.468492730674498 39.538328111971204 0 0 0
730 5 1 17.447205902603038 4.9101378996785705 50.50517994867604 0 0 0
2412 4 1 15.782223307644868 4.155616908846282 43.80400633493274 0 0 0
7967 60 1 2.1448992641049127 18.94063353828276 43.84320320271976 0 0 0
6987 54 1 2.1109073537809473 8.588901792455891 49.06235107972236 0 0 0
7658 58 1 1.0789882486252769 14.797800276658487 43.32149447348693 0 0 0
2260 31 1 15.246473923048354 26.234808412614843 43.67095604455938 0 -1 0
1196 7 1 7.580537551948111 10.702025951714567 40.456005000572745 0 0 0
1197 7 1 8.790533856050773 10.005988318395747 41.1525746943888 0 0 0
1198 7 1 9.061817795131006 10.135384381801916 42.62570311301579 0 0 0
1199 7 1 10.460225629783034 9.74343351057006 43.10475711314824 0 0 0
1200 9 1 10.587258906870535 12.404084286358236 47.93382463488035 0 0 0
1201 9 1 11.020050631303443 12.123169810454362 49.31848313128016 0 0 0
1202 9 1 12.241886577459194 12.874117208978639 49.758616378683286 0 0 0
1203 9 1 12.842505393804254 11.874976037225588 50.753558866982466 0 0 0
1204 9 1 14.145743553851574 12.28799690361667 51.50009320383979 0 0 0
1205 9 1 14.724808466811748 11.568005588676515 52.731534164054835 0 0 0
3829 56 1 16.155607085880415 16.41278704731633 44.409225832806605 0 0 0
3604 29 1 16.397679395444925 15.053010434523575 39.833586032494104 0 0 1
969 60 1 1.9116108675918588 8.576326869687893 39.301011158008386 0 0 0
8441 64 1 9.655799171532461 23.348933299596524 51.85825553167045 0 0 0
238 3 1 18.352082929686812 1.5881624304425919 51.178206213361435 0 0 0
1732 13 1 17.12841135539454 18.594536365857326 50.56155499366243 0 0 0
1206 9 1 15.728177303521083 12.542259411667594 53.45689065366477 0 0 0
8181 62 1 1.181225657294147 20.898803104879477 48.205185341982414 0 0 0
761 60 1 15.52795907230703 8.236364315404144 53.319122058764094 0 0 0
2337 17 1 17.792276083556903 1.5346149418186619 41.06883489153753 0 0 0
11 55 1 16.021152885546318 26.107617433766087 53.54160786343537 0 -1 0
6993 54 1 7.571762925524506 7.891749388866048 54.45172134393818 0 0 0
1419 9 1 5.767788655416735 11.803841511925715 43.68111276483034 0 0 0
1420 9 1 6.85279009746332 12.554404977569817 44.512182944586726 0 0 0
1421 9 1 7.756781242773385 11.705503232276117 45.51621921499691 0 0 0
1422 9 1 8.803030759521635 12.560074373689302 46.39026089452499 0 0 0
1423 9 1 9.332301007007976 11.759790258142539 47.543278649898404 0 0 0
1424 9 1 15.50860182296745 14.254814802211582 48.70600005148987 0 0 0
1425 9 1 16.245508021640877 15.11711689230278 49.71822102180958 0 0 0
1426 9 1 17.18748398933202 14.11488350468444 50.32748344505916 0 0 0
717 5 1 6.042660159274314 6.284484637406206 38.82525347473333 0 0 0
663 52 1 1.823765660278885 4.226190766375389 39.48578134417314 0 0 1
7877 58 1 5.168314560903966 16.720671482948447 53.13876909181765 1 0 0
3164 24 1 16.956878888363157 12.860436577846174 45.913524786355865 0 0 0
2335 17 1 16.07354819910586 1.808015252674229 39.419884507477434 0 0 0
2336 17 1 16.510424866065737 1.0041145827330888 40.592994182796055 0 0 0
6985 54 1 0.4118801906616334 8.377038082058053 47.20957790584001 1 0 0
2715 51 1 14.588484781773765 8.023296346444411 42.70870376528892 0 0 0
723 5 1 11.431855654862247 6.445340335833498 44.292025898541496 0 0 0
8434 64 1 3.5322248664761915 23.374816328312114 45.899734833927745 0 0 0
4275 30 1 15.27857249216862 22.20430611035469 43.31179965444095 0 0 1
1644 9 1 11.84357477218445 14.387239339312995 45.17820726180806 0 0 0
1645 9 1 12.964718943771786 15.198585906325023 45.820095260479434 0 0 0
1646 9 1 13.746651014605042 14.573967054529515 47.06429825994621 0 0 0
1647 9 1 14.795828040386128 15.299490188419473 47.83719623297117 0 0 0
1648 11 1 10.347508443991124 17.090631981864963 48.14848011845723 0 0 0
1649 11 1 11.280688304143133 16.198043349486436 48.95923334820563 0 0 0
1650 11 1 12.160929735054177 17.05357392629654 49.87705242666951 0 0 0
1651 11 1 13.119348424683697 16.230291519901403 50.89643735533567 0 0 0
1652 11 1 14.238484906639144 17.13823916036358 51.43131195872614 0 0 0
1653 11 1 14.630653391432064 16.588491295344436 52.89959305466314 0 0 0
4271 30 1 11.313906823003395 21.736312343291047 40.32636836496839 0 0 1
1977 64 1 4.162188002649457 20.813694060329155 41.7481251346463 0 0 0
3823 27 1 11.022030888059204 16.65005461299255 39.124021942869255 0 0 1
2410 4 1 13.92359805587959 4.225653324242633 41.999718539780034 0 0 0
7211 56 1 2.8078152652581476 10.609663077602862 45.064192935197276 0 0 0
7878 58 1 6.47823854665693 16.14564549286443 53.69977898011264 0 0 0
1719 8 1 1.438586917836934 17.181384545094925 38.81712018481573 0 0 1
2262 31 1 17.112300948162897 25.95927144352158 45.31433899529541 0 -1 0
6394 48 1 6.448516897040256 24.698042719228532 53.73446015618957 0 -1 0
2338 17 1 18.349323073278608 0.7029442456413871 42.24271449167669 0 0 0
973 60 1 5.436701644368794 8.398990573779667 42.83402332096118 0 0 0
2411 4 1 14.890681093898728 3.4397240146576165 42.85283847425036 0 0 0
7871 58 1 0.38888721175837004 17.57976473069725 47.791929969890404 1 0 0
1681 11 1 6.887031294179015 17.01363960131498 44.2597740604447 0 0 0
1682 11 1 7.792170344860363 16.186583282826344 45.23157475909935 0 0 0
1683 11 1 8.544247347493348 17.049250449843605 46.2701321846921 0 0 0
1684 11 1 9.592026194499015 16.242585933612993 47.062260741426904 0 0 0
1722 13 1 8.413250500586194 18.712818695728107 41.34796800428291 0 0 0
1723 13 1 9.33397594414458 19.46703948974267 42.26033516571738 0 0 0
1724 13 1 10.047188668247717 18.658237239599025 43.2378553547682 0 0 0
1725 13 1 10.706531987478604 19.483486315512184 44.341506574053064 0 0 0
1726 13 1 11.935598858216329 18.893488322346435 44.8386179635191 0 0 0
1727 13 1 12.616490856023011 19.6622368416231 45.99237392138031 0 0 0
1728 13 1 13.697160601519668 18.950210452586173 46.87685898950449 0 0 0
8 55 1 12.94526362712547 25.170454916077837 51.09803482840114 0 -1 0
2254 3 1 8.43926342859458 23.391335650710523 41.55938231913331 0 0 0
2712 51 1 11.921651777396397 8.775128401174364 40.05689149169423 0 0 0
10 55 1 14.857328418243407 25.383145652691617 52.87209516289917 0 -1 0
7209 56 1 1.1310045840672494 10.533797069340508 43.382569291646014 0 0 0
8438 64 1 6.824026141974706 22.943496288375286 49.70180183411607 0 0 0
3824 27 1 11.794782514522158 17.48971836376061 40.13412996893199 0 0 1
6609 12 1 0.9984403434172598 1.724776504165877 43.45188348076417 0 0 0
4277 31 1 16.501706276343985 21.603649468314472 45.49990936261169 0 0 0
2633 20 1 18.416593801646698 5.671374959697902 42.079256558526936 0 0 0
1945 13 1 7.507701854288035 19.641086731705197 40.479473415600346 0 0 0
1946 64 1 9.653771046173487 21.508705963879937 46.8601564756118 0 0 0
1947 64 1 10.248244237283991 21.785876739400432 48.25523981132798 0 0 0
1948 64 1 10.929014759305026 20.593011434185204 48.83882228885993 0 0 0
1949 64 1 11.762331354575597 21.067406810505958 49.99420127828707 0 0 0
1950 64 1 12.960185294907127 20.24681036847454 50.51900997243959 0 0 0
1951 64 1 13.625221185205296 21.14350846253165 51.46744189117912 0 0 0
1952 64 1 14.671762103963282 20.607531383233333 52.412066769847684 0 0 0
1953 64 1 15.244833509662602 21.528921723352045 53.34120916446125 0 0 0
6938 49 1 1.6104025497771188 5.430235088221901 44.59135560179696 1 0 0
6614 12 1 5.417082748787562 0.7392029969645613 47.75963472657756 0 0 0
3827 27 1 14.363776085051626 16.859444537701485 42.75192570111146 0 0 1
2261 31 1 15.965724432611811 25.197336112793153 44.547597838443636 0 -1 0
8437 64 1 5.997132590456495 23.937318637326175 48.88840401778564 0 0 0
7661 58 1 3.7224292842071667 13.914905728731496 46.099149403345756 0 0 0
7872 58 1 1.6868533294136234 17.659457524542766 48.47945679596123 1 0 0
666 4 1 4.632535860824829 3.2407459044579126 42.03985150711567 0 0 0
7213 56 1 4.521755376700686 10.590827284212189 46.70926399602121 0 0 0
668 4 1 6.381443400668617 3.147380121116157 43.946632570097016 0 0 0
1720 8 1 2.096079207099758 16.352150169365203 39.916441509455225 0 0 1
7439 26 1 2.249367394576021 12.837015394027901 48.98518211424777 0 0 0
7438 26 1 1.3763527446505843 12.055137815629532 47.980809337377195 0 0 0
234 3 1 14.969616842725832 1.5704595079020058 47.548812133699755 0 0 0
1982 64 1 8.321393581544053 22.008317770690763 46.44289790826446 0 0 0
2035 3 1 13.013387975626419 24.071282592383888 46.027030015041746 0 0 0
2036 3 1 13.94121661064729 23.173576355268374 46.77207652391264 0 0 0
2037 3 1 14.321643842392929 23.870055664752584 48.151479778977006 0 0 0
7440 26 1 3.0846192684476073 12.041628681858866 50.030579855262836 0 0 0
7966 60 1 1.0933632938120057 19.534125584835678 42.84511895708085 0 0 0
9 55 1 13.915901892742754 26.079504833102693 51.8364498896072 0 -1 0
7970 60 1 4.460565505731652 19.75748617688121 46.89256577881751 0 0 0
8431 64 1 0.866069496794236 24.100472595461603 43.27019753182104 0 0 0
6615 12 1 6.245612835907771 1.5962846411308633 48.65605410252273 0 0 0
1415 47 1 2.375773422135764 12.041246362959159 40.208851100491316 0 0 1
7874 58 1 3.7018138142577777 16.7906688911421 49.43246293989255 1 0 0
6393 48 1 5.778811205302725 25.44630240571741 52.53586508067462 0 -1 0
236 3 1 16.875171869400486 1.478608012960156 49.26332632047012 0 0 0
6162 62 1 1.395415470023012 23.39362284413785 53.61156637207888 1 0 0
2255 3 1 9.400262271294988 24.165721784304303 42.55779237678299 0 0 0
2256 3 1 10.158794084535998 23.359339607960024 43.549217501548654 0 0 0
2257 3 1 11.16923807277433 24.237726116396 44.256602337681386 0 0 0
2258 3 1 12.130785821577794 23.311426476173683 45.09511675504258 0 0 0
2259 31 1 14.338642532815374 25.45886841845457 42.86960702266819 0 -1 0
2034 14 1 2.520927877856473 20.601036591930203 39.947076240416116 0 0 1
1730 13 1 15.566967911568854 18.739180217467577 48.43277721817301 0 0 0
2718 51 1 17.015155626029916 8.395233904393352 45.543564123526295 0 0 0
1733 13 1 18.10054213446039 19.38288213741457 51.50344059457068 0 0 0
1637 10 1 5.564762239934278 15.012585771418863 38.8122206741446 0 0 1
4273 30 1 13.18977423235965 21.756141702461033 41.96783948247967 0 0 1
3608 56 1 18.558718236460216 16.91036897880866 47.53558369009337 0 0 0
2334 17 1 14.916803603593845 1.036686353558829 38.79751542540977 0 0 0
2413 4 1 16.516737433866737 3.070738880291833 44.47196974638561 0 0 0
7659 58 1 1.9007066184679835 13.887964039057982 44.27455494929374 0 0 0
984 7 1 18.294887867918373 10.64266078370921 51.099081216232875 0 0 0
7215 56 1 6.077688316055605 10.674120715874553 48.76856310249162 0 0 0
7973 60 1 7.347263759829685 18.233685040068824 49.14558319048342 0 0 0
6941 49 1 4.669316695591872 6.115015656864737 46.933204033115715 0 0 0
2408 4 1 12.171277410659942 3.98252574994667 39.963170034699644 0 0 0
2710 21 1 14.870689759715214 5.846660128432873 38.69769078769127 0 0 1
6388 48 1 1.1351308225907704 25.38058269310116 48.299524166520186 0 -1 0
6621 12 1 11.625648480064187 1.2904968362321136 53.81011092319642 0 0 0
1943 13 1 5.618457040714353 19.49728588866919 39.00891451249407 0 0 0
7210 56 1 1.8563811563693027 9.694940548279959 44.36976834215404 0 0 0
7873 58 1 2.3261561279064646 16.364925905489407 48.8155187444445 1 0 0
6945 49 1 8.14248506871561 5.93237230341442 50.4281475717095 0 0 0
6831 51 1 0.7382566819825774 2.7353131712212573 48.39075752260023 0 0 0
6833 51 1 2.3330691281915117 2.8881419626812925 50.37845592347699 0 0 0
2033 14 1 1.6000751472805104 21.381496739603858 39.095910764996546 0 0 1
6949 49 1 11.484252238456273 5.894200810203587 53.83601442830883 0 0 0
4272 30 1 12.466058304751442 21.038134584360595 40.92202709839815 0 0 1
7876 58 1 4.886569516141765 16.838355292523627 51.636527958744125 1 0 0
2414 4 1 17.24111181216705 3.79781307280785 45.58257004574644 0 0 0
7220 56 1 10.470328233458781 9.334258604630792 52.838824857945546 0 0 0
7208 56 1 0.3033298677447047 9.588098691533316 42.468085505597955 0 0 0
7669 58 1 10.845511252330246 13.94233328325257 52.940530430964195 0 0 0
3603 29 1 15.493185267360394 14.445311905369485 38.8003142475087 0 0 1
4282 32 1 16.30834198798252 24.290272668919414 39.96186122201961 0 0 0
6988 54 1 2.901306237359336 7.843175251912716 50.11463145671242 0 0 0
1980 64 1 6.4926923971057215 21.772721121336385 44.76999080280692 0 0 0
6619 12 1 9.966949745706328 1.5491851288488119 52.032107163773894 0 0 0
6620 12 1 10.399506086692377 0.757637945420033 53.223693450181095 0 0 0
7870 58 1 0.43681469238220516 16.443270118744305 46.79714426158778 1 0 0
1643 9 1 11.043065385959396 15.055041996602775 44.05942900580477 0 0 0
219 55 1 1.6667656726476487 26.099689257086787 39.32673416825411 0 -1 0
1679 11 1 5.002979979357436 17.108329371066464 42.54773878034058 0 0 0
1641 10 1 9.489343537703414 15.026799155022196 42.08213242341846 0 0 1
3161 24 1 14.364756461965426 12.340955100074215 42.91432882426385 0 0 0
3162 24 1 15.04562750274427 13.105033627250664 44.010246018507964 0 0 0
3163 24 1 16.194645795386325 12.257838869273078 44.70644569866289 0 0 0
1195 7 1 7.2173535389550985 9.969318508714228 39.270976431761625 0 0 0
7212 56 1 3.5319620632773265 9.76492406011228 46.064982748154904 0 0 0
6991 54 1 5.600851286551179 8.13098161459154 52.697688020321685 0 0 0
7219 56 1 9.728766031441921 10.197037001178384 51.78236683728271 0 0 0
1639 10 1 7.5613451306230575 14.987627902861805 40.47045184208894 0 0 1
7662 58 1 4.942982079554682 14.861817741057525 46.53808657878875 0 0 0
8443 64 1 11.239455018900125 23.573222908628736 53.94087663582248 0 0 0
7670 58 1 11.54784286433639 14.705622156273805 54.07996961002376 0 0 0
7660 58 1 3.099680065016163 14.620281864624634 44.92038091402413 0 0 0
2295 31 1 13.556054871868586 26.306723772996364 41.94983704859841 0 -1 0
6617 12 1 7.8561844027804835 1.6355061282678622 50.49254800046784 0 0 0
726 5 1 14.230763609760373 5.284809962353925 46.781111728958834 0 0 0
3606 26 1 18.15365246560342 14.864387543244645 41.63047083661864 0 0 0
4278 31 1 17.722086056503652 20.818706716806012 45.89628985751271 0 0 0
7668 58 1 9.903368716284403 14.882123629590913 52.286679657118476 0 0 0
7214 56 1 5.371940904642368 9.753665404698442 47.71542210419827 0 0 0
8184 62 1 3.5203190829753255 21.436145412392978 51.18687894432002 0 0 0
2252 15 1 6.887651627872554 23.136213133028622 39.69353041895577 0 0 1
983 7 1 17.29443142441476 9.700635945861105 50.50978297215354 0 0 0
2332 16 1 10.805244871127705 25.35677542013704 39.405306815317296 0 -1 1
2719 51 1 17.747538163896625 7.275289438622445 46.28827174766142 0 0 0
7217 56 1 7.7645253816298805 10.391163487043997 50.577660456511005 0 0 0
6613 12 1 4.4953864923313365 1.6544202075127714 46.957575758914516 0 0 0
5383 32 1 1.4656205655979202 10.31574853390267 53.06448407920211 1 0 0
5862 48 1 1.9031929155193028 18.36444439484174 54.40371041649292 1 0 0
6940 49 1 3.8108928596673297 5.181195654341231 46.251191051235466 0 0 0
6989 54 1 4.049545696443272 8.506495334630568 50.82428382136247 0 0 0
6391 48 1 3.7881073650968773 26.071621692857413 51.106714709052135 0 -1 0
6836 51 1 5.554820073230836 3.2400079436634495 52.39552101593128 0 0 0
5082 38 1 2.898728248831757 6.019576215720769 54.48836344346556 0 0 0
7965 60 1 0.17446906142050417 18.55812697142677 42.131566760877135 0 0 0
3607 56 1 17.835988672223888 16.111426478260473 46.43641751545556 0 0 0
2415 4 1 18.337198796936864 2.966703443844194 46.22143764453389 0 0 0
6947 49 1 9.818907985274095 5.7236999104605735 51.97779320914274 0 0 0
8440 64 1 8.53555364025841 22.548789813618605 51.26765241152815 0 0 0
7974 60 1 7.7084230731408825 18.90288153514389 50.459522604738154 0 0 0
7218 56 1 8.755958407843597 9.355808437366715 51.022572880817734 0 0 0
7875 58 1 3.5131215410379686 16.46815263363464 50.936119769050855 1 0 0
7972 60 1 6.0322048810146525 19.048364942872563 48.69236002708255 0 0 0
8442 64 1 10.282593840498754 22.66979847992811 53.081869011552925 0 0 0
7665 58 1 7.284340173344763 14.116325847410499 49.3928859945142 0 0 0
7216 56 1 6.909086136095943 9.690536140181543 49.47589806791418 0 0 0
6392 48 1 4.502070354052431 25.047294258938418 51.97204206522861 0 -1 0
6948 49 1 10.683506636248566 5.011237812959826 53.0082459284816 0 0 0
6944 49 1 6.720665906711584 5.515393638349064 50.038361972196114 0 0 0
7443 26 1 5.603981339873629 12.943923126782135 52.59807839897262 0 0 0
6389 48 1 1.8534356847555853 26.276553123892516 49.22077065693289 0 -1 0
2041 3 1 18.050515432145858 23.772590989662174 51.38527700546512 0 0 0
4276 31 1 16.33941967175002 21.35879248536737 43.983492463948 0 0 0
6834 51 1 3.6469667896004223 3.573690886285973 50.825367982101156 0 0 0
1944 13 1 6.628752944409831 18.69915099222813 39.72157896921781 0 0 0
7975 60 1 8.959158300782306 18.35895522232078 51.189872896997926 0 0 0
2942 42 1 17.4409021142724 10.96215195432194 41.523795300085396 0 0 0
7664 58 1 6.621662534907324 15.031443841187317 48.37563883259846 0 0 0
5567 42 1 0.7487959539282887 14.340616111871377 52.24128077807505 1 0 0
7663 58 1 5.884821537403723 14.081814189451789 47.39898802059915 0 0 0
7971 60 1 5.432744166487192 18.681202848109155 47.414740037855054 0 0 0
3828 56 1 15.242150227366066 17.47256066565587 43.781418147111644 0 0 0
3160 24 1 13.684566737015206 13.177298591562726 41.83732063349549 0 0 0
3381 24 1 11.196620585058119 12.270225535247894 39.14610217470163 0 0 0
2940 42 1 16.32969988241642 10.746049790876071 39.37244503602716 0 0 0
6835 51 1 4.265860744859007 2.6926633467315577 51.84791603535209 0 0 0
7977 60 1 10.389535234640718 18.372322555672483 53.34321158649418 0 0 0
8185 62 1 4.3630096074598566 20.703167573542004 52.159997493574316 0 0 0
4628 11 1 1.2345276729297865 1.5093065316564975 53.779547810672604 1 0 0
1731 13 1 16.14435488834995 19.398775689170506 49.65863330757412 0 0 0
6612 12 1 3.8603006821403376 1.0062316734865888 45.79149793431067 0 0 0
8183 62 1 2.877218585147265 20.666608637376946 50.09422950178762 0 0 0
2293 31 1 11.894980281289738 26.267574526044086 39.988303568234905 0 -1 0
2632 20 1 17.68253265585771 6.490677745776133 41.092838671139106 0 0 0
6837 51 1 6.080304932943237 2.3235840175656546 53.42818978146317 0 0 0
6161 62 1 0.6657526994329761 22.58614931544297 52.567189847378586 1 0 0
2038 3 1 15.283201614579587 22.98970360055303 48.89297888090263 0 0 0
4274 30 1 14.465491245593379 21.131570442655384 42.56359140256091 0 0 1
6946 49 1 8.491477237246142 5.059399394594499 51.53272990662022 0 0 0
8439 64 1 7.832094457817196 23.593793840546883 50.58183377036215 0 0 0
6986 54 1 1.3295925861081024 7.615086659954007 48.12896272174902 1 0 0
3826 27 1 13.48082359507723 17.81509615227751 41.959380657571685 0 0 1
8182 62 1 1.7661345291699277 21.518526772117255 49.52066440268362 0 0 0
3165 24 1 17.876550789508823 11.815134384993591 46.560317058863326 0 0 0
2667 20 1 16.15238112243128 6.435477489519498 39.2699100345758 0 0 0
5568 42 1 1.7854348372514872 14.975335180154952 53.20789161598395 1 0 0
7444 26 1 6.577752152882667 11.965500992448675 53.28840885941237 0 0 0
4629 11 1 2.163298011564079 0.5223264820961788 54.34234185363546 0 0 0
6610 12 1 1.9446381828442059 0.9592430799856463 44.349302868544584 0 0 0
6611 12 1 2.885440072865566 1.93110432027664 44.99206647529329 0 0 0
6618 12 1 8.552244447034022 1.0014025634021644 51.641003012957725 0 0 0
665 52 1 3.4748454392894885 4.023282702884754 41.494208057398346 0 0 1
1638 10 1 6.622804625749713 14.203491944952955 39.589760093182846 0 0 1
1979 64 1 6.085049556809302 20.879661329479923 43.471659489926544 0 0 0
6832 51 1 1.9629891693200952 3.5003494755549194 48.93150983942133 0 0 0
2040 3 1 17.056385627748416 22.97106028941817 50.50000282638668 0 0 0
6937 49 1 1.2120983319399299 5.967876196737807 43.249528960813386 1 0 0
7666 58 1 8.087071473319819 14.869823643479664 50.38124791896637 0 0 0
1416 47 1 3.3923428035714243 12.933213867162356 40.849073928318134 0 0 1
8187 62 1 6.043174143130607 20.57096257125766 53.89980531732975 0 0 0
4284 32 1 17.989228900144994 24.156762165218115 41.943983287001736 0 0 0
2716 51 1 15.333971807824259 8.863117358290436 43.716621597945846 0 0 0
6943 49 1 6.168242886583389 6.2758507702852455 48.860892692225114 0 0 0
5081 38 1 1.8105007933295783 5.241361609181821 53.81798986762021 0 0 0
2294 31 1 12.749034800943626 25.495406805272335 41.006714411914984 0 -1 0
7445 26 1 7.471182932033691 12.549260131420079 54.444766407663636 0 0 0
727 5 1 14.96835250635815 6.042775615099934 47.80524511866492 0 0 0
235 3 1 15.843100593016523 0.7828412090945106 48.43807081402159 0 0 0
7442 26 1 4.885045402529833 12.121656518624011 51.56346850690763 0 0 0
1729 13 1 14.707117388457673 19.74746172340776 47.602787297009776 0 0 0
2717 51 1 16.039489602926803 7.822188464690881 44.5664083747546 0 0 0
455 4 1 15.496998418567479 3.421892788511694 53.575514509805835 0 0 0
6942 49 1 5.118470845587147 5.483877094722823 48.096370430076185 0 0 0
7667 58 1 8.919372897485491 14.106298920386575 51.40498232132284 0 0 0
4283 32 1 17.196124728576205 23.380619674659915 40.9003631783005 0 0 0
3830 56 1 17.07183892462417 16.995960160652707 45.46257598626205 0 0 0
6939 49 1 2.861415255250455 5.945538051860074 45.271334016893704 0 0 0
7969 60 1 3.816686754336084 19.024572222161037 45.737091949851255 0 0 0
2631 20 1 16.682594841361972 5.602324758951227 40.41570871705145 0 0 0
2711 51 1 11.085006089502023 7.900930879022868 39.166253722318174 0 0 0
5384 32 1 2.1851301348924714 9.380611222131733 54.005832807067584 1 0 0
1954 64 1 16.20131458353919 20.79914705957598 54.158695925649745 0 0 0
2943 42 1 18.206883133417083 10.223045669403774 42.61175807224975 0 0 0
1654 11 1 15.845402793983233 17.279200766111654 53.52231104971271 0 0 0
5861 48 1 1.175843002656118 19.24426450745251 53.455639446222975 1 0 0