LAMMPS data file via write_data, version 23 Jun 2022, timestep = 1000

8487 atoms
2 atom types
8471 bonds
3 bond types
8455 angles
3 angle types
8439 dihedrals
3 dihedral types

0 36.89775039 xlo xhi
0 26.67072 ylo yhi
0 236.7516044 zlo zhi
0 7.448720975 0 xy xz yz

Masses

1 14
2 15

Pair Coeffs # lj/cut/omp

1 0.0914 3.95
2 0.1947 3.75

Bond Coeffs # harmonic/omp

1 449.5 1.53
2 449.5 1.53
3 449.5 1.53

Angle Coeffs # harmonic/omp

1 62.0967 114
2 62.0967 114
3 62.0967 114

Dihedral Coeffs # opls/omp

1 1.411 -0.271 3.145 0
2 1.411 -0.271 3.145 0
3 1.411 -0.271 3.145 0

Atoms # molecular

1 1 1 7.286458689521312 1.7339711505717588 8.439431320693963 0 0 0
2 1 1 8.665762904609041 1.4690651715784586 9.099987176035457 0 0 0
3 1 1 8.782572286100025 1.7826602115205286 10.541194585939937 0 0 0
4 1 1 10.080273528683064 1.315347180788288 11.200696308500724 0 0 0
5 1 1 10.154792082135062 1.5748210448155293 12.664250232705202 0 0 0
6 1 1 11.416454935022331 1.2464106999301023 13.43594709683357 0 0 0
7 1 1 11.381373407531575 1.4725436679867627 14.951272054049213 0 0 0
8 1 1 12.693159229099589 1.2295066953525744 15.617464463412485 0 0 0
9 1 1 12.7595790927598 1.443844544677708 17.14866978490068 0 0 0
10 1 1 14.09020026121913 1.074102796460453 17.772704164251167 0 0 0
11 1 1 14.05622229785843 1.317733615380647 19.282064953115967 0 0 0
12 1 1 15.369214116665137 0.8313117311041217 19.86934731341732 0 0 0
13 1 1 15.55178095101834 1.185291513573071 21.343904192965113 0 0 0
14 1 1 16.765933029467426 0.542529706121171 21.917449583899458 0 0 0
15 1 1 16.844420079682667 0.9696889706718281 23.42547029109355 0 0 0
8285 64 1 7.972014641852276 25.608630272461745 15.85435413727166 0 0 0
38 1 1 2.9232504913338015 1.0503191605659365 0.4061606841511174 0 0 0
39 1 1 3.3129537321624523 1.6726036852271684 1.7547704814957348 0 0 0
40 1 1 4.498087169349097 1.093432572209898 2.510158962594162 0 0 0
41 1 1 4.748942764130311 1.483408457751218 4.019378997839086 0 0 0
42 1 1 5.901223753366479 0.9298622396065694 4.819707903973143 0 0 0
43 1 1 5.8369408590900385 1.4006214834546833 6.261222412912632 0 0 0
44 1 1 7.102087387164189 1.037366720526517 7.09816408244133 0 0 0
134 2 1 10.262678330147548 3.312482238709821 6.1030529642795415 0 0 0
135 2 1 11.50479949344743 3.873163737632293 6.795868085684456 0 0 0
136 2 1 11.922400182470259 3.2961114114349876 8.139517445696745 0 0 0
137 2 1 13.173352980558851 3.7962930439919145 8.808753937767314 0 0 0
138 2 1 13.33793571831601 3.2821208715283094 10.234961083196902 0 0 0
139 2 1 14.572459629337622 3.8874086878821164 10.90508804120991 0 0 0
140 2 1 14.829288063396517 3.2179618461695365 12.276888388389978 0 0 0
141 2 1 15.91821698941336 3.873034639847011 13.113380323967146 0 0 0
142 2 1 16.006710809248407 3.259826784637839 14.49530733823769 0 0 0
143 2 1 17.295314745290835 3.626431963733081 15.265948581759611 0 0 0
144 2 1 17.45141832270312 2.8596586490368665 16.613252023821758 0 0 0
145 2 1 18.609464376880084 3.4923725292395544 17.44615607067561 0 0 0
146 2 1 18.722631506747458 2.9666011811671664 18.878014300663942 0 0 0
166 2 1 7.335721261841013 3.866397852724329 0.3373056969910557 0 0 0
167 2 1 7.5397961429004505 3.470591825154235 1.817382873868725 0 0 0
168 2 1 8.772422543415626 4.015113637544544 2.5388400519790446 0 0 0
169 2 1 8.949595131579006 3.3548774363618596 3.8514065057751994 0 0 0
170 2 1 9.988193118370187 4.0526277351018924 4.80249249217325 0 0 0
171 3 1 7.211074830306141 6.160237202725399 8.20026676758436 0 0 0
172 3 1 8.441782144876354 5.522478364057793 8.924410308817555 0 0 0
173 3 1 8.687991946092193 6.216349758735736 10.275960615590954 0 0 0
174 3 1 9.831081025134052 5.620893945741109 11.098662006654427 0 0 0
175 3 1 9.993548120247477 6.156539987382461 12.515944054166836 0 0 0
176 3 1 11.112096325207695 5.548719885322608 13.303128322297455 0 0 0
177 3 1 11.329178349020147 5.999087362976011 14.74420793476775 0 0 0
178 3 1 12.573855315012267 5.376885355623877 15.347579379562937 0 0 0
179 3 1 12.787603769249701 5.656948867601258 16.825804136780096 0 0 0
180 3 1 14.121430197840525 5.269793193375962 17.479010954705714 0 0 0
181 3 1 14.084362731789259 5.400294303628787 18.998568570381845 0 0 0
182 3 1 15.373618427058329 5.2829974210793775 19.744928856436065 0 0 0
183 3 1 15.281352439430636 5.710265934868507 21.179593758665543 0 0 0
184 3 1 16.593121378798116 5.579014035803504 21.951390473687066 0 0 0
185 3 1 16.500399563079824 5.534522811963027 23.44266659002895 0 0 0
8284 64 1 6.582487827590438 25.4205402133132 15.247669832949903 0 0 0
388 3 1 2.8340904546326833 5.606663777894746 0.35840535049289124 0 0 0
389 3 1 3.0722113549778727 6.2134657574353955 1.7255155172848846 0 0 0
390 3 1 4.280374417311481 5.683134668746853 2.540012598481209 0 0 0
391 3 1 4.375750239405403 6.148543352417082 3.99555523006792 0 0 0
392 3 1 5.469139188005392 5.4472207887094735 4.759672436729056 0 0 0
393 3 1 5.692998507881423 6.092406964873995 6.106950686168334 0 0 0
394 3 1 6.853686679642438 5.514713549932782 6.87324424148233 0 0 0
432 5 1 10.42825352367437 7.854730290555781 6.226065906701882 0 0 0
433 5 1 11.381859164656783 8.642359332014141 7.177551266775992 0 0 0
434 5 1 11.781348089475994 7.76585152732742 8.425577691631105 0 0 0
435 5 1 12.753678520919072 8.445258507925395 9.360272290905877 0 0 0
436 5 1 13.077699760018213 7.8048862978148845 10.704479785147445 0 0 0
437 5 1 14.341287986840314 8.272690888149974 11.417149578833008 0 0 0
438 5 1 14.479950206372706 7.838704813059976 12.89450111718388 0 0 0
439 5 1 15.808541730248281 8.16030552147073 13.591606600457787 0 0 0
440 5 1 16.17686979563717 7.38917139035028 14.827143672411419 0 0 0
441 5 1 17.342862350143967 7.976162283253613 15.644438437496097 0 0 0
442 5 1 17.76784299117844 7.30493474939972 16.909830531689355 0 0 0
443 5 1 18.678786212516652 8.000217356112461 17.89070496363347 0 0 0
1460 15 1 18.484845389655288 21.37463316074911 17.953310030093746 0 0 0
464 5 1 7.466780237705731 8.554981322297463 0.5508332442219654 0 0 0
465 5 1 7.73065361380318 7.969554197851101 1.8997522286021258 0 0 0
466 5 1 8.696231442873266 8.773443852298394 2.7155854536410775 0 0 0
467 5 1 9.007670932619927 8.131480292350913 4.072885669449205 0 0 0
468 5 1 10.04818505606635 8.73481021565123 5.016133420361909 0 0 0
469 9 1 7.240406664482724 10.716563893052157 8.684731779494498 0 0 0
470 9 1 8.420821543186259 10.131517067801665 9.507356394665385 0 0 0
471 9 1 8.661853100021045 10.877030527527749 10.807670559072381 0 0 0
472 9 1 9.932559105782586 10.47478366480587 11.523656099749726 0 0 0
473 9 1 10.088169044123985 10.88539118102787 12.94018818351472 0 0 0
474 9 1 11.23822819933122 10.208033621066395 13.650053062839783 0 0 0
475 9 1 11.369251484073306 10.50922821400169 15.133758533357831 0 0 0
476 9 1 12.483813430202524 9.758188230178842 15.873629145083832 0 0 0
477 9 1 12.783661913890835 10.359457725791124 17.217361160757047 0 0 0
478 9 1 13.97843303640399 9.758561530218063 17.889279208529665 0 0 0
479 9 1 14.281125855489696 10.406828362423878 19.295268780980305 0 0 0
480 9 1 15.547073320638013 9.883186634886263 20.058337450414903 0 0 0
481 9 1 15.645276939108053 10.403731819701408 21.491626965263517 0 0 0
482 9 1 16.78689229453225 9.931823780627903 22.4284117725563 0 0 0
2901 10 1 18.684560433765217 14.774747685986066 12.53467694626168 0 0 0
8288 64 1 9.76617981331707 25.16717541694275 19.394106251625885 0 0 0
686 9 1 3.157702853971856 10.070265550865543 0.6751977088305753 0 0 0
687 9 1 3.2279247439079803 10.515825134233477 2.066543060293195 0 0 0
688 9 1 4.2955524096143645 9.921456643221193 2.9595766931454017 0 0 0
689 9 1 4.337634944809048 10.475417061510926 4.410487374604627 0 0 0
690 9 1 5.41176251260879 9.754958957625592 5.229127482380173 0 0 0
691 9 1 5.823780687036696 10.470565822363222 6.519563580717766 0 0 0
692 9 1 7.012272785590845 9.96712382168403 7.3613791894076 0 0 0
693 10 1 10.56207749292736 12.550474924810976 5.8869006315271974 0 0 0
694 10 1 11.612042510411843 13.26108111185297 6.724544098437376 0 0 0
695 10 1 11.860138096331793 12.5219725791392 8.043869403088477 0 0 0
696 10 1 12.894321048760915 13.21052986374498 8.889287589416291 0 0 0
697 10 1 12.990946169581694 12.533972004202143 10.286056664194021 0 0 0
698 10 1 14.128636119866064 13.062240021778042 11.17019064307035 0 0 0
699 10 1 14.24379142593592 12.299349817909123 12.538439526179774 0 0 0
700 10 1 15.463165439291028 12.691749181496215 13.387418236915535 0 0 0
701 10 1 15.600345319709001 12.103951891825048 14.804247300115142 0 0 0
702 10 1 16.889649399625018 12.615222764300505 15.456096224321659 0 0 0
703 10 1 17.11260175943691 12.176874849459274 16.954291286219004 0 0 0
3595 21 1 17.971413750140627 26.026033994515704 2.210693293123787 0 0 0
8287 64 1 9.668197335455524 25.390354399173425 17.893047040057784 0 0 0
912 10 1 7.3020838769944625 12.931557960886341 0.4057902505797626 0 0 0
913 10 1 7.958688792348133 12.174362914036662 1.5223347108871883 0 0 0
914 10 1 8.641880504657847 13.095169293039204 2.5244508884363053 0 0 0
915 10 1 9.013289721848691 12.395401450964508 3.788911445397852 0 0 0
916 10 1 10.097874601667703 13.145525192806943 4.531509466049178 0 0 0
917 11 1 7.367048060228692 14.726147254723312 8.417843877888899 0 0 0
918 11 1 8.674169277374617 14.287618685919302 9.117217399657289 0 0 0
919 11 1 8.641216009481413 14.73604759314143 10.58775342411905 0 0 0
920 11 1 9.885061540428355 14.454211213956953 11.49374445543135 0 0 0
921 11 1 9.92848021087872 15.070889492344694 12.826163339085532 0 0 0
922 11 1 11.12930984611372 14.725571566888325 13.685244846500503 0 0 0
923 11 1 11.199419128060315 15.340697725600947 15.06420976241245 0 0 0
924 11 1 12.39780601209983 14.850763238711927 15.890915439947198 0 0 0
925 11 1 12.526172156137449 15.244558458961903 17.341967097633635 0 0 0
926 11 1 13.73554909019508 14.675051478252191 18.07835719762868 0 0 0
927 11 1 13.801041312814458 14.989571072726852 19.55885275473033 0 0 0
928 11 1 14.872078799887829 14.19119090090988 20.334986435554956 0 0 0
929 11 1 15.124113936866456 14.698104938236456 21.72191176699063 0 0 0
930 11 1 16.293245823641115 14.11039606920562 22.527895511902173 0 0 0
8066 53 1 7.271397880046317 23.68478383626799 23.475805277091393 0 0 0
8283 64 1 6.6202874967010725 25.73510409509572 13.751170248795557 0 0 0
1134 11 1 2.9359749274310745 14.356641347506253 0.6069973574202029 0 0 0
1135 11 1 3.3904586400943524 14.919829551435507 1.9533539949123884 0 0 0
1136 11 1 4.25794593418157 14.038636412565683 2.82962216025754 0 0 0
1137 11 1 4.360451735124753 14.437428390256715 4.282725378278556 0 0 0
1138 11 1 5.677139806437605 14.007256371155552 4.951400780330929 0 0 0
1139 11 1 5.892659277441159 14.703025638196642 6.322304553690333 0 0 0
1140 11 1 7.270693539464876 14.378908928023899 6.8984552027094805 0 0 0
1188 12 1 10.407669262540553 16.909129032580694 5.975862751722314 0 0 0
1189 12 1 11.541103697505543 17.561953666755553 6.766434338018491 0 0 0
1190 12 1 11.676039103644175 16.96974438673804 8.204348358231103 0 0 0
1191 12 1 12.82765942571167 17.637571950734305 9.001102795416406 0 0 0
1192 12 1 12.970309331949373 16.901908671511347 10.298802938294301 0 0 0
1193 12 1 14.190965717866984 17.267530234174494 11.105386473825234 0 0 0
1194 12 1 14.208641898379073 16.76681699015226 12.564295429278548 0 0 0
1195 12 1 15.532939472474306 17.075358797903363 13.267430420789296 0 0 0
1196 12 1 15.484823725181844 16.824069255734877 14.749818424002026 0 0 0
1197 12 1 16.780760667811908 17.101835025715104 15.51405447141959 0 0 0
1198 12 1 16.780742509955452 16.908724944407908 17.041450951515298 0 0 0
1199 12 1 18.201996561048528 16.937548473564448 17.572662894210826 0 0 0
1441 13 1 1.7390696975300595 19.310873851219583 0.07888697611341607 0 0 1
1220 12 1 7.1582304587811265 17.038034392693433 0.31355979610370865 0 0 0
1221 12 1 7.236574930858559 16.71186988318211 1.8384688913065617 0 0 0
1222 12 1 8.550772801048982 17.252204807168376 2.520964277449372 0 0 0
1223 12 1 8.920520521743837 16.795648954730172 3.922162730645986 0 0 0
1224 12 1 10.026033682486036 17.561966062146226 4.646508592165852 0 0 0
1225 14 1 7.2682947387830925 18.876605601789155 8.828390164711674 0 0 0
1226 14 1 8.658989738598125 18.978049483784545 9.424462398206456 0 0 0
1227 14 1 8.716334197538782 19.29016251459865 10.939843082486258 0 0 0
1228 14 1 10.141594703288204 19.315791962248703 11.577455954481055 0 0 0
1229 14 1 10.107616442084531 19.330648622631315 13.105333924367418 0 0 0
1230 14 1 11.398980660748093 19.303886919275197 13.83755644565219 0 0 0
1231 14 1 11.248377149978898 19.429137210043088 15.376851442876145 0 0 0
1232 14 1 12.65326713713058 19.29478891631614 16.04196987171346 0 0 0
1233 14 1 12.672472440234772 19.21602799731765 17.53022517262025 0 0 0
1234 14 1 14.059513361105058 19.282637166515208 18.195719471970158 0 0 0
1235 14 1 14.081790002286517 19.41185708872391 19.708534339713175 0 0 0
1236 14 1 15.39590807491264 19.129813890553713 20.473898935702998 0 0 0
1237 14 1 15.263473674265214 18.96036103415795 21.99569631564244 0 0 0
1238 14 1 16.632850025361698 18.810588574433748 22.718129431294535 0 0 0
6371 18 1 0.6016721425018033 0.6472154172974409 11.28621827944341 0 0 0
8282 64 1 5.287857813455084 25.624445400609567 12.967841084292715 0 0 0
1442 14 1 3.0615695320171628 19.008037582282856 0.8198343243034373 0 0 0
1443 14 1 3.066647541436276 19.395597922674042 2.3079117109952842 0 0 0
1444 14 1 4.350621838471611 18.97062377816255 2.971403220155343 0 0 0
1445 14 1 4.448533908219507 19.23465171762141 4.445702993551624 0 0 0
1446 14 1 5.904703698391983 19.136492327326856 5.028726221033752 0 0 0
1447 14 1 5.894151330467197 18.87000529837904 6.569348428688671 0 0 0
1448 14 1 7.235452248148233 18.700221070757987 7.276267673304383 0 0 0
1449 15 1 10.456635025093087 21.39223000648989 6.377217532397027 0 0 0
1450 15 1 11.774290032755868 21.796372186250224 6.993447436695226 0 0 0
1451 15 1 11.746101138834916 21.33963124122141 8.472800871368667 0 0 0
1452 15 1 13.099595414339012 21.783925267451227 9.131676340565617 0 0 0
1453 15 1 13.497486394727467 21.019561397131437 10.432833768593984 0 0 0
1454 15 1 14.465674829710293 21.699673613772184 11.376046386762328 0 0 0
1455 15 1 14.45904011307016 21.13535754328603 12.764421430719873 0 0 0
1456 15 1 15.546022945561925 21.745433759026728 13.608749153984823 0 0 0
1457 15 1 15.795301079633166 21.2754373485401 15.09461947279166 0 0 0
1458 15 1 17.123822733351226 21.580133182146817 15.759267531649055 0 0 0
1459 15 1 17.173715767482168 21.103469625755015 17.19586984646363 0 0 0
1200 12 1 18.256441089732945 16.845342485123382 19.081202820946874 0 0 0
8058 53 1 1.7657708342089715 23.48090412067 15.00484883994947 0 0 0
1668 15 1 7.3617060664551985 21.88330302999282 0.5791752524100816 0 0 0
1669 15 1 7.479972658520159 21.273389874028286 1.9837121937539672 0 0 0
1670 15 1 8.764548122711862 21.745012381094632 2.7342439869000414 0 0 0
1671 15 1 8.94322664393849 21.331359910978776 4.197296695967213 0 0 0
1672 15 1 10.195575544711982 21.825941490566326 4.921946192293101 0 0 0
1673 18 1 7.503735364666313 23.916527421231592 8.676736146584068 0 0 0
1674 18 1 8.490109576099305 23.135985872850835 9.615093927293275 0 0 0
1675 18 1 8.943353667978931 23.92661294481918 10.907170300028515 0 0 0
1676 18 1 9.894513596664394 23.17970389411646 11.876857673414591 0 0 0
1677 18 1 10.444368246648748 23.91463175297946 13.0916743862109 0 0 0
1678 18 1 11.179267982869058 23.050812981684235 14.159178709769208 0 0 0
1679 18 1 11.865292308682776 23.927849695076066 15.24389797812342 0 0 0
1680 18 1 12.445949603086811 23.120223227746973 16.444359622091252 0 0 0
1681 18 1 13.228233771902328 24.01130401548969 17.38663151998275 0 0 0
1682 18 1 14.083531155980197 23.136377017485536 18.342173564045325 0 0 0
1683 18 1 14.710576388292452 23.80264243471017 19.565545168246516 0 0 0
1684 18 1 15.667875072351757 23.044838251629045 20.438242462810933 0 0 0
1685 18 1 15.792829710813963 23.56302663313446 21.922225457295806 0 0 0
1686 18 1 16.923610947369255 22.9656006540953 22.708645714337695 0 0 0
2589 26 1 16.186234878999322 8.032782029893507 0.05075874637826929 0 0 0
3106 50 1 11.97661915292821 19.136423640742652 0.005247183275073912 0 0 0
1890 18 1 3.0919010030110594 23.40614182837469 0.601034862060366 0 0 0
1891 18 1 3.2363426588979083 23.989769492517535 2.0343267304424053 0 0 0
1892 18 1 4.534224106690756 23.54753737425106 2.691557933221434 0 0 0
1893 18 1 4.655342000893112 23.95280546431253 4.2119071507168595 0 0 0
1894 18 1 5.725496730151704 23.25455438387203 5.046845985590503 0 0 0
1895 18 1 6.202778903549139 24.013374432257834 6.317029527890984 0 0 0
1896 18 1 7.175971934261142 23.256150961304122 7.314862217237686 0 0 0
1934 7 1 10.404035450058998 25.539358195221006 5.959071217108914 0 0 0
1935 7 1 11.66200733269454 25.901413747156695 6.779090190934279 0 0 0
1936 7 1 11.655286696570185 25.585767141246208 8.276750678438287 0 0 0
1937 7 1 12.77640214994658 26.089422082268324 9.118357879933503 0 0 0
1938 7 1 12.915307777147675 25.494311215801794 10.54392492230382 0 0 0
1939 7 1 14.066838575338872 26.149752067000005 11.336308953799076 0 0 0
1940 7 1 14.458345438764074 25.338180589774463 12.580040481662811 0 0 0
1941 7 1 15.358723274702326 26.082713309925023 13.558832145420848 0 0 0
1942 7 1 15.95760654644379 25.22908274240021 14.716770976592937 0 0 0
1943 7 1 16.770548532243943 26.1223357343494 15.616318182919086 0 0 0
1944 7 1 17.446415293436136 25.375310838341797 16.769975691434418 0 0 0
8057 53 1 1.7754580583202566 23.1325187422768 13.509713525145273 0 0 0
8061 53 1 4.351982705867623 23.427192077343324 17.856894939872436 0 0 0
1966 7 1 7.796322218901636 26.193817596275114 0.13085020969901678 0 0 0
1967 7 1 7.6915878136229106 25.96603173636344 1.6252231659001548 0 0 0
1968 7 1 9.056913968936641 26.087181572314467 2.3632593557536437 0 0 0
1969 7 1 9.072844446453933 25.60631395918801 3.818516246929856 0 0 0
1970 7 1 10.321182385189882 26.123963763092807 4.5316703666101885 0 0 0
1971 20 1 13.40113869352388 1.580971745127546 3.9009207195414346 0 0 0
1972 20 1 14.690828961597502 1.262124294767813 4.623226837955816 0 0 0
1973 20 1 14.834022044030993 1.5327060848416927 6.173802572987913 0 0 0
1974 20 1 16.222307792794417 1.2717261975572696 6.766241438961268 0 0 0
1975 20 1 16.216030739239947 1.1010653507730397 8.258823181184482 0 0 0
1976 20 1 17.664961477642443 1.01392800150342 8.842429795257706 0 0 0
1977 20 1 17.688046325262228 0.901040657513189 10.339938870968162 0 0 0
704 10 1 18.50024604063138 12.343698986033754 17.5313634749974 0 0 0
2029 20 1 12.264841173461773 1.709235454160914 1.6118909780469746 0 0 0
2030 20 1 13.401144025791153 1.1501132791960953 2.448316141661444 0 0 0
2068 21 1 16.530420557332764 3.207166820756268 1.069441541032225 0 0 0
2069 21 1 17.4647277606473 3.967909502280189 1.9527197891078962 0 0 0
2070 21 1 18.252346660170183 3.133566628031359 2.9898577865841385 0 0 0
1946 7 1 18.885107553533892 25.163747971087542 18.86462451118313 0 0 0
2142 24 1 13.781581655263134 6.092546906216175 3.592526494201067 0 0 0
2143 24 1 14.958565565708788 5.551178444118909 4.383629266146838 0 0 0
2144 24 1 15.171976481077703 6.108921394095466 5.80679311895695 0 0 0
2145 24 1 16.167558752508512 5.355786078249603 6.716436923245381 0 0 0
2146 24 1 16.226732885194277 6.015039201706149 8.127437215995684 0 0 0
2147 24 1 17.402783246626228 5.594509459310578 8.945644357012354 0 0 0
2148 24 1 17.582696659361627 6.32595660417036 10.297389773120935 0 0 0
2363 24 1 11.964093309008039 5.365993951380525 0.24990449931715644 0 0 0
2364 24 1 12.346866673258228 5.984963418579562 1.5337484257945442 0 0 0
2365 24 1 13.557058243040395 5.429488972020098 2.2232835312771098 0 0 0
2366 26 1 16.42153254079963 8.183852683316552 1.533410003660286 0 0 0
2367 26 1 17.78530388777229 7.883642068145583 2.1774834334058677 0 0 0
2368 26 1 17.795604701158304 8.045868367330545 3.731760108881227 0 0 0
8023 63 1 11.904633212014815 21.63875773614097 22.452036116538594 0 0 0
2590 14 1 13.517436330195016 10.634207984184693 4.052224787243964 0 0 0
2591 14 1 14.3441725254494 9.879040905623762 5.010921719860618 0 0 0
2592 14 1 14.799020091860836 10.722430004665279 6.230297296285117 0 0 0
2593 14 1 15.86779766700636 10.008012025562826 6.989486375768565 0 0 0
2594 14 1 16.206506672472 10.793125109682865 8.279010580079515 0 0 0
2595 14 1 17.476674959284786 10.224669849777124 8.981191031612976 0 0 0
2596 14 1 17.705641146313006 10.80182026180616 10.38173408870031 0 0 0
1461 15 1 18.478094268212576 20.729917613341538 19.347996976346842 0 0 0
2630 14 1 12.2425385750628 10.755945889518927 1.7669292190215713 0 0 0
2631 14 1 13.050032346685084 9.877735006385375 2.769815490019036 0 0 0
2669 47 1 16.241565172096415 12.448773116680913 1.397317293025804 0 0 0
2670 47 1 17.637307652875243 12.550388549322912 1.9695084117719792 0 0 0
2671 47 1 17.746190386347976 12.608302247563659 3.483981664233635 0 0 0
3080 50 1 18.765329134603633 19.160877776326462 12.345529919876544 0 0 0
2893 10 1 13.611673621069366 15.194800937958428 3.592112223197587 0 0 0
2894 10 1 14.693549194868638 14.5828211173391 4.499735576841711 0 0 0
2895 10 1 14.77040474391621 15.214094706158654 5.917440514181854 0 0 0
2896 10 1 16.077486384264727 14.862386995211939 6.610570625545051 0 0 0
2897 10 1 16.068433283569743 15.298334421051432 8.087646335348548 0 0 0
2898 10 1 17.334677256375844 14.903224383459188 8.841795185042168 0 0 0
2899 10 1 17.24596830672623 14.873946037813177 10.359598275856312 0 0 0
8022 63 1 10.689527550838978 21.120807846721533 21.659878267599 0 0 0
2928 10 1 12.074114341196676 15.028764675246682 1.5575046640240588 0 0 0
2929 10 1 13.286321167334563 14.438101416534527 2.2846724939664558 0 0 0
2967 29 1 16.672014992298937 16.604501044835395 1.4168340718024302 0 0 0
2968 29 1 17.75365036787599 17.27769264242218 2.2629776188534736 0 0 0
2969 29 1 18.08319604805333 16.503805824897675 3.5663183606831206 0 0 0
8005 63 1 0.0995523825158541 21.849508226400218 2.6927055063362118 1 0 0
3072 50 1 13.564458426524032 19.1673802345515 3.6022469668339423 0 0 0
3073 50 1 14.98409417345265 19.140057226889404 4.201477884498443 0 0 0
3074 50 1 14.965659974957372 19.235418206287104 5.730299671720045 0 0 0
3075 50 1 16.28523040832655 19.195978970952794 6.449744582922482 0 0 0
3076 50 1 16.073906892208022 19.116730638126302 7.921549531178377 0 0 0
3077 50 1 17.475375156951188 19.22327713113341 8.599796731913612 0 0 0
3078 50 1 17.36344911671195 19.206437689834946 10.115113147995665 0 0 0
7276 3 1 0.8420096401514348 14.241943548169195 11.947269531931903 0 0 0
3107 50 1 12.172489714334443 19.03819494691505 1.4847598515839135 0 0 0
3108 50 1 13.551655484601207 18.949783695688804 2.078875647105842 0 0 0
3146 24 1 16.83296978941603 21.046996986079876 1.1864159143643778 0 0 0
3147 24 1 17.799040028687585 21.868837140667637 2.025578497521297 0 0 0
8286 64 1 8.226036985448582 25.3243954588421 17.31921557651811 0 0 0
8021 63 1 10.614362809015937 21.598802697883787 20.244309070273093 0 0 0
3370 20 1 13.71141894140106 23.87277839081874 4.296847587431573 0 0 0
3371 20 1 14.90408503879028 23.351318068349176 5.084759040150018 0 0 0
3372 20 1 15.239075488184488 24.04818394503456 6.380104654641426 0 0 0
3373 20 1 16.363136533525523 23.34241806792428 7.165032934829411 0 0 0
3374 20 1 16.61032503090026 23.896357733343876 8.573040346588632 0 0 0
3375 20 1 17.811272583277407 23.22161301466459 9.257973355616882 0 0 0
3376 20 1 17.943196832251278 23.67459896942154 10.760074026860593 0 0 0
3591 20 1 12.242460992732822 23.30252478830987 0.6335841783868668 0 0 0
3592 20 1 12.557747978910285 24.06006110531184 1.8823299926283763 0 0 0
3593 20 1 13.531292447357156 23.33902860143403 2.852538187372234 0 0 0
3594 21 1 16.727169224517837 25.63483042902573 1.477226005124139 0 0 0
8060 53 1 3.0235123531969794 23.731022406325135 17.119581641846185 0 0 0
7724 26 1 0.4864064883537238 19.257871459537142 11.100734403449634 0 0 0
1945 7 1 18.45253153535858 26.071745701309368 17.711349805908352 0 0 0
4063 39 1 1.4832054903439928 3.8287525591998812 19.632225938410517 0 0 0
4064 39 1 1.445692274091181 3.666270037257011 21.113221557627078 0 0 0
4065 39 1 2.7720955107190286 3.956371324211297 21.822108068285456 0 0 0
4066 39 1 2.804716254990325 3.7841898123525537 23.372792557122526 0 0 0
8281 64 1 5.381960576293249 25.88984873208318 11.452285318123336 0 0 0
4511 43 1 1.1783674763638703 8.23260103574282 19.686572235604615 0 0 0
4512 43 1 1.2378530226163338 7.917663474707532 21.192775973953978 0 0 0
4513 43 1 2.617529400511886 7.997844156947918 21.777257966725212 0 0 0
4514 43 1 2.607333231627603 7.935613555233021 23.312024272513206 0 0 0
2629 14 1 11.509859187820187 10.076807303634592 0.6217033834430306 0 0 0
4959 43 1 1.0224314747932608 12.826973637243462 20.05042383378403 0 0 0
4960 43 1 1.2115074950737241 12.344009107997799 21.493489939003787 0 0 0
4961 43 1 2.5283917788625647 12.703068210145556 22.210660957125995 0 0 0
4962 43 1 2.6228425602445995 12.086329567500023 23.577804914012138 0 0 0
6814 54 1 0.6014541067184687 5.237758435337736 11.40591657294197 0 0 0
5404 44 1 0.7451836297439532 17.244743908889763 20.173582556104268 0 0 0
5405 44 1 0.9244721876845559 16.758676557095757 21.627482123936808 0 0 0
5406 44 1 2.212284360890317 17.090824425456628 22.44315011793335 0 0 0
8006 63 1 0.18480208563446315 21.62529944773535 4.21667907886223 1 0 0
8065 53 1 7.346578511449212 23.693387707955008 21.964023048036825 0 0 0
5705 47 1 1.1486081750724844 21.760615154636966 19.854549547291395 0 0 0
5706 47 1 1.4473498956426045 20.979806963055648 21.134722832332614 0 0 0
5707 47 1 2.5198597070602426 21.584214075209662 22.035896212081273 0 0 0
5708 47 1 2.7675963673203605 20.973256679261404 23.43874962361027 0 0 0
8280 64 1 4.091523774608884 25.9703500185796 10.71028075986527 0 0 0
6153 6 1 1.148274357175461 26.22717036729991 19.873731181060474 0 0 0
6154 6 1 1.4190751310215814 25.658571773244887 21.190659587932547 0 0 0
6155 6 1 2.574534541252791 26.145768489963793 22.050686628325785 0 0 0
6156 6 1 2.8063541230232745 25.356359797425807 23.348337988266966 0 0 0
8064 53 1 6.003785891661347 24.06979442263918 21.368843985235067 0 0 0
2028 20 1 12.045944192010074 1.2111514285989917 0.17709596256911087 0 0 0
6372 18 1 0.7319447560733214 1.2017442844582074 12.69649290000621 0 0 0
6373 18 1 1.9369679339744756 0.7869005176810272 13.541594203292199 0 0 0
6374 18 1 2.284331107529143 1.5843531025249582 14.84445533254677 0 0 0
6375 18 1 3.248833516921139 0.9298016978496442 15.769671201963709 0 0 0
6376 18 1 3.5689712917843495 1.8270604284685892 16.96440207765235 0 0 0
6377 18 1 4.510462176430822 1.0606206234608966 17.851604415886907 0 0 0
6378 18 1 4.9098196963572285 1.8062707778135967 19.128828096973393 0 0 0
6379 18 1 5.822888651838677 0.9511191389934361 19.970767613463725 0 0 0
6380 18 1 6.146156249155014 1.619493402041946 21.348854182673836 0 0 0
6381 18 1 7.045512699570205 0.9017340529462772 22.315416005081342 0 0 0
3079 50 1 18.706682886077527 19.233022073065843 10.808137689974386 0 0 0
8063 53 1 5.895111126559525 23.89620032213641 19.883965786048112 0 0 0
6591 53 1 1.2025219586313178 3.4666897125031215 4.771688833220942 0 0 0
6592 53 1 1.2709899802408076 3.240896319076336 6.327645094647075 0 0 0
6593 53 1 2.57774551015759 3.6209724635829734 6.8968224339475 0 0 0
6594 53 1 2.5901806607666296 3.316511554876859 8.39105732705653 0 0 0
6595 53 1 3.8658736017152946 3.797613846212252 9.064620964429395 0 0 0
6596 53 1 3.975202961584592 3.2389864877582744 10.455888881865512 0 0 0
6597 53 1 5.235506428328105 3.817809709950917 11.204810969321969 0 0 0
6598 53 1 5.46069735603558 3.301965455811905 12.617827197593847 0 0 0
6599 53 1 6.681510367406307 3.8098816639746627 13.370051129340428 0 0 0
6600 53 1 6.664641036072307 3.197160147128573 14.728917347644943 0 0 0
6601 53 1 7.868314955620486 3.6016460149255827 15.526932707304772 0 0 0
6602 53 1 7.806956370108583 3.126814276284544 17.0204982864771 0 0 0
6603 53 1 8.89448898530156 3.6749398024564233 17.868088570065467 0 0 0
6604 53 1 8.982908323183738 3.1912375293565205 19.30790420229828 0 0 0
6605 53 1 10.312417197365054 3.588255820017766 19.96541771715887 0 0 0
6606 53 1 10.454774687708884 3.1974913548736756 21.435861946816363 0 0 0
6607 53 1 11.795452941547781 3.3386743874832954 22.16218043851051 0 0 0
6608 53 1 11.800260260354326 3.2327545800812514 23.642855884222307 0 0 0
8279 64 1 4.274593251801643 25.99778940121481 9.182841462683832 0 0 0
3148 24 1 17.9737222180613 21.2502458432265 3.4127848558182476 0 0 0
6815 54 1 1.0574060102102254 6.160857907930775 12.554922169426703 0 0 0
6816 54 1 2.092760363333343 5.550983184276968 13.415204282646673 0 0 0
6817 54 1 2.323065848724585 6.1853514773235805 14.774247413948636 0 0 0
6818 54 1 3.484873252633653 5.556552051022562 15.602192780926268 0 0 0
6819 54 1 3.62327917079571 6.134711310113151 17.053033126766763 0 0 0
6820 54 1 4.79896234276667 5.581904830077333 17.797849896177933 0 0 0
6821 54 1 4.999138085104826 6.096066488896871 19.21775978805388 0 0 0
6822 54 1 6.269321030511957 5.589641776084894 19.918726739129436 0 0 0
6823 54 1 6.3162951559542995 5.826687175034193 21.43935594365145 0 0 0
6824 54 1 7.644158975365972 5.517958521294635 22.173914240883708 0 0 0
2598 14 1 18.843462675481685 10.458619221398816 12.58996327689887 0 0 0
8062 53 1 4.461794554133873 23.942681354395585 19.31326525190222 0 0 0
6919 55 1 0.9760416115106274 8.404535368076793 4.972120432920662 0 0 0
6920 55 1 1.3189910033793797 7.707825812952153 6.293505074040559 0 0 0
6921 55 1 2.397776250604503 8.407633711337944 7.098271613269855 0 0 0
6922 55 1 2.840109229180374 7.816208260761275 8.466429673030525 0 0 0
6923 55 1 4.015244829761616 8.403651499301164 9.311732013847472 0 0 0
6924 55 1 4.190244387456147 7.683979106817841 10.645513543146638 0 0 0
6925 55 1 5.184107762142718 8.43367214543059 11.579966258080244 0 0 0
6926 55 1 5.659882070172947 7.6821852450975365 12.81641436381844 0 0 0
6927 55 1 6.668188013780532 8.37025537106176 13.714042309038705 0 0 0
6928 55 1 7.079614855621241 7.528191735818221 14.918830066692557 0 0 0