LAMMPS data file via write_data, version 23 Jun 2022, timestep = 11111117

9706 atoms
2 atom types
9690 bonds
3 bond types
9674 angles
3 angle types
9658 dihedrals
3 dihedral types

0 36.89775039 xlo xhi
0 26.67072 ylo yhi
11.325134005705237 225.4264703942469 zlo zhi
0 6.736094224893799 0 xy xz yz

Masses

1 14
2 15

Pair Coeffs # lj/cut/omp

1 0.0914 3.95
2 0.1947 3.75

Bond Coeffs # harmonic/omp

1 449.5 1.53
2 449.5 1.53
3 449.5 1.53

Angle Coeffs # harmonic/omp

1 62.0967 114
2 62.0967 114
3 62.0967 114

Dihedral Coeffs # opls/omp

1 1.411 -0.271 3.145 0
2 1.411 -0.271 3.145 0
3 1.411 -0.271 3.145 0

Atoms # molecular

1 1 1 8.116631608188007 1.6028961409241118 19.428605093404105 0 0 0
2 1 1 8.552988503373012 0.8222594679187075 20.70449549550019 0 0 0
3 1 1 9.723374423029167 1.4850450576097978 21.36879619328989 0 0 0
4 1 1 10.151022454973699 0.6575524401699897 22.621764928309986 0 0 0
5 1 1 11.061475570705866 1.3867365591770382 23.577297173628246 0 0 0
6 1 1 11.610657193608317 0.5113890390466974 24.73959184283163 0 0 0
7 1 1 12.538659887447272 1.2985875667135256 25.717602704166815 0 0 0
8 1 1 12.975970716386827 0.6250751184157253 27.047373497965165 0 0 0
9 1 1 14.185665830442645 1.291545141651445 27.741940045314806 0 0 0
10 1 1 14.396770919909784 0.6917924704959072 29.185537619954037 0 0 0
11 1 1 15.309466127547267 1.4587237127481238 30.081128128636248 0 0 0
1492 28 1 1.5986884771391894 14.970870174569978 11.816110806519134 0 0 1
7807 34 1 4.244694383677438 5.779913115909078 26.8622436291626 0 0 0
9345 10 1 6.476078117167162 22.752139991235744 31.067941197473036 0 0 0
1048 15 1 5.590183855891045 9.744144911137937 16.416906320975503 0 0 0
8572 41 1 5.243023396271124 14.286118632619315 28.955737150619413 0 0 0
8102 55 1 11.90466841700526 7.355761581308595 30.773601291649985 0 0 0
74 1 1 3.3617477868544112 1.5546405035234447 13.437900235752211 0 0 0
75 1 1 3.936754654860426 0.7641478338859438 14.637756047958057 0 0 0
76 1 1 4.9475012301943435 1.5521981432468668 15.464326757219823 0 0 0
77 1 1 5.447717349518395 0.7904303293832432 16.65746371404928 0 0 0
78 1 1 6.443848334707408 1.6687959867468256 17.42831897120361 0 0 0
79 1 1 6.859721113668542 1.051712880892078 18.794412443065866 0 0 0
159 3 1 9.324824419641802 3.5952684206773697 15.260992752066041 0 0 0
160 3 1 9.934737241600141 2.709631549691935 16.30818122409589 0 0 0
161 3 1 10.869143646410603 3.6304229203344285 17.11014087212425 0 0 0
162 3 1 11.54181877700139 2.7989125636648637 18.25420445326024 0 0 0
163 3 1 12.71465947804293 3.432945318040327 18.924097488146934 0 0 0
164 3 1 13.047408427014064 2.8310310405336407 20.314183643021472 0 0 0
165 3 1 14.288177628103108 3.4347822779690738 20.979075891201013 0 0 0
166 3 1 14.36872130946167 3.0886798097442765 22.45875935661239 0 0 0
167 3 1 15.663958416360966 3.4380216717956382 23.157393651803616 0 0 0
168 3 1 15.95737586411476 2.8235571527154053 24.55173362432567 0 0 0
380 3 1 6.760419872634032 3.1604616375459553 12.351842442794794 0 0 0
1044 7 1 2.5118318855889625 9.872302462964496 12.395413548391236 0 0 1
9338 10 1 1.7350796457540993 23.611683648284217 23.52034194112978 1 0 0
1497 9 1 5.80723316899568 14.00715334368373 16.464342493702414 0 0 0
9343 10 1 4.927574926759407 23.004308433119622 29.085539051948693 0 0 0
3280 18 1 12.588808216015563 10.798181494259786 13.582839005211403 0 0 1
381 3 1 7.796263382082905 3.862350519099575 13.270561647529108 0 0 0
382 3 1 8.477259491954381 2.9163762233267843 14.213650947150775 0 0 0
383 55 1 5.9777152636237885 5.975889580060971 17.147185788137648 0 0 0
384 55 1 7.115624391420985 5.229036229138487 17.80360758854521 0 0 0
385 55 1 7.41086908518782 5.7976432015179356 19.237751637640134 0 0 0
386 55 1 8.619675370860099 5.220021495040669 20.052836298811812 0 0 0
387 55 1 8.887733339558649 5.827534734520489 21.396688067088355 0 0 0
388 55 1 9.8067506666427 5.093281604645023 22.411195330594765 0 0 0
389 55 1 10.414218229789354 5.934601796271236 23.48971405729719 0 0 0
390 55 1 11.507459749918342 5.245664992792637 24.323366621673998 0 0 0
391 55 1 11.911271399829234 5.850239817297085 25.667884725052026 0 0 0
1512 10 1 16.475732441409217 16.938065368729088 26.628532253774196 0 0 0
4407 30 1 11.105308911898298 23.31676004256665 12.778699628115428 0 0 0
1494 28 1 3.165781118682176 15.061676645485205 13.770967316305903 0 0 1
822 6 1 6.323287313710111 8.069510508482905 11.594302399236467 0 0 1
3953 42 1 11.085046390009753 19.2363822713921 11.329592866335261 0 0 0
7359 16 1 3.304454157683807 1.6961660674402177 25.884452938493816 0 0 0
9163 63 1 0.22709147677638422 21.00055003280014 17.322623465125126 1 0 1
826 51 1 9.528322802745619 7.9806030088628646 15.652857426072185 0 0 0
8180 56 1 1.3073068710848115 10.070739362062598 22.709288792809698 0 0 0
8093 55 1 4.651587996117665 8.302497205717433 21.573956919542294 1 0 0
2503 11 1 11.701467707055707 1.1468262484622462 12.741257880931188 0 0 0
2354 16 1 18.410379553951024 25.693479792851626 28.183303675119856 0 0 0
605 55 1 4.577208117765442 6.021401099713563 15.06188206360121 0 0 0
606 55 1 5.503736676583761 5.223579294956684 15.979840453708238 0 0 0
607 51 1 13.683672067605883 7.792475841636319 20.64615780598183 0 0 0
608 51 1 13.65710955403212 7.75177236252202 22.16865208593812 0 0 0
609 51 1 15.011947952256936 7.3736030318768835 22.766688654514724 0 0 0
610 51 1 15.169148430335229 7.774541522295722 24.201791906914046 0 0 0
611 51 1 16.45164170551862 7.3711670390760995 24.78931351350802 0 0 0
612 51 1 16.768763998403028 7.788246472415793 26.18085273195466 0 0 0
2355 16 1 18.62822631671187 25.131186453370848 29.581537406214743 0 0 0
2817 4 1 16.20259041646912 5.146527808536301 18.26368551448028 0 0 0
12 1 1 15.881600006826977 0.8103639183092016 31.336883622262086 0 0 0
1047 7 1 4.713504544276176 10.653601434643036 15.552481842154045 0 0 1
9339 10 1 2.034278030316202 22.94462628289414 24.87103724528687 1 0 0
8352 38 1 10.226762555411703 12.318204008479674 30.208973174209703 0 0 0
8571 41 1 4.1310303389803655 15.012722670267582 28.160777702621093 0 0 0
9645 3 1 11.228410714229378 25.346929249914535 31.291645305784364 0 0 0
3950 25 1 16.035876048469397 16.756972622189732 12.577874085844053 0 0 1
3723 27 1 13.603813919762706 14.522953996225734 14.991465435542953 0 0 1
2039 14 1 17.00130813420596 20.773088051290163 27.089963224536277 0 0 0
830 51 1 12.34020866191044 8.066685869092904 19.948363193629056 0 0 0
831 15 1 10.330877743859231 10.425219443497506 23.96565302855249 0 0 0
832 15 1 11.166782111230155 9.511574450163348 24.806980232843166 0 0 0
833 15 1 11.916085825453942 10.17356682594662 25.93919974980357 0 0 0
834 15 1 12.932627983863565 9.335030630870419 26.664418830681893 0 0 0
835 15 1 13.303027621083585 10.173788952119269 27.877352162233045 0 0 0
836 15 1 14.637178755335713 9.792550155427186 28.542559074708066 0 0 0
837 15 1 14.909865840791621 10.338693515275292 29.96197032547011 0 0 0
838 15 1 16.095527893152877 9.68939271672577 30.58561763399793 0 0 0
1723 10 1 7.050958978641887 16.326390941734523 13.10289948862653 0 0 0
2343 40 1 6.258540261534424 25.942457372865068 11.707863316907206 0 0 1
8862 61 1 1.7323566585986672 16.97590192986217 17.909944336061983 0 0 0
8570 41 1 3.5580677317504987 14.134061657964631 27.06112283927296 0 0 0
603 55 1 2.900281165368583 6.081854608103321 13.203718865155814 0 0 0
8091 55 1 3.0581485133635846 8.33110092070218 19.446082929997253 1 0 0
1272 24 1 10.244975073270655 11.648745172996739 16.76066637204702 0 0 1
2814 4 1 14.273196332419257 6.041280341629469 14.905729391795681 0 0 0
1495 28 1 4.213828910831028 14.238534570034043 14.390479957163105 0 0 1
1049 15 1 6.194052168454663 10.408116618694493 17.61382606610473 0 0 0
1050 15 1 7.078744041962183 9.525348826395351 18.578721794538087 0 0 0
1051 15 1 7.927902108434631 10.349209311335896 19.56469232995343 0 0 0
1052 15 1 8.698462754119452 9.576825608429083 20.64349131137057 0 0 0
1053 15 1 9.2891749843634 10.500555607686941 21.66367591258551 0 0 0
1054 15 1 10.190519854117294 9.788200024653998 22.609256779958578 0 0 0
1055 8 1 15.290937772678218 12.379994059243426 23.9639164171887 0 0 0
1056 8 1 15.90507852399451 11.63038844566137 25.132027339543406 0 0 0
1057 8 1 16.215219194258722 12.456502141552132 26.349690149674913 0 0 0
1058 8 1 17.369562919936993 11.87091053659745 27.285123049779372 0 0 0
6234 41 1 2.1227461723653342 16.967689349940304 32.282149275512275 1 0 0
1722 10 1 6.218132162895316 17.159053582494877 12.131636457858232 0 0 0
839 15 1 16.49816632435701 10.3090254808411 31.936945966596927 0 0 0
2124 15 1 16.52332766073496 23.42965099072816 32.14162868561547 0 0 0
3502 39 1 15.635498789506245 13.111343780906646 11.77330312464991 0 0 1
9344 10 1 6.202363094712292 23.46354135925087 29.735345500569366 0 0 0
7811 34 1 7.50571536530326 5.58080228697633 30.866586679453075 0 0 0
614 51 1 18.408098661128253 7.795073257841221 28.106203770725234 0 0 0
2353 16 1 17.18317047197443 25.263577818447867 27.40406744115515 0 0 0
9642 3 1 9.18629001169046 26.07946825356077 28.071477293801248 0 0 0
1275 8 1 12.413297628467548 12.557586920648344 19.796388945393424 0 0 0
1276 8 1 12.878522579237396 11.75245714150461 20.993916981411903 0 0 0
1277 8 1 13.836772029061446 12.525487902462213 21.865933058812402 0 0 0
1278 8 1 14.3814739360444 11.696965567494608 23.016973503059255 0 0 0
1279 9 1 10.256412063305213 14.528765623941698 22.71142991273689 0 0 0
1280 9 1 10.16534301553277 14.90252106192163 24.198864369834993 0 0 0
1281 9 1 11.464654125950196 14.655427372744466 24.961296433129313 0 0 0
1282 9 1 11.523359682453846 14.713693988074008 26.450023760813306 0 0 0
1283 9 1 12.812022351054399 14.25728433639638 27.05617816270366 0 0 0
1284 9 1 13.165638662586497 14.899067294309036 28.4061938774188 0 0 0
1285 9 1 14.31039716558244 14.177251647265244 29.056859195584213 0 0 0
1286 9 1 14.514055551320865 14.827236870610488 30.38754037911255 0 0 0
7140 48 1 3.222225823748663 26.22469747078574 32.041371673228056 0 0 0
1513 10 1 17.49295192026094 16.16904817966964 27.493453042022836 0 0 0
3958 42 1 14.278627107831742 19.017068223074666 16.777546467858983 0 0 0
8090 55 1 2.8613920874472547 7.564897660554069 18.1939280462895 1 0 0
7591 51 1 10.562708629231555 3.591840052540427 30.038231769556937 0 0 0
8867 61 1 5.698994009978003 16.227057124395152 23.046178262723785 0 0 0
9252 64 1 6.147023362880891 21.350705552710988 23.814311023599103 0 0 0
9630 3 1 0.3175016568007591 25.787560191487223 15.64100387825426 1 0 0
3122 45 1 15.548904991572781 8.412383670302114 11.651126627120895 0 0 1
825 6 1 9.237761507516124 7.572352074232416 14.196110375942052 0 0 1
1498 9 1 6.289348179620103 14.73528517024273 17.747544394345628 0 0 0
1499 9 1 7.528686428400404 14.08350166156844 18.395744848560017 0 0 0
1500 9 1 7.674611974362856 14.574794899608365 19.790835121789655 0 0 0
1501 9 1 8.896820680198754 14.232089051131425 20.590050509543268 0 0 0
1502 9 1 8.862718705267449 14.571328663788904 22.097541031635483 0 0 0
1503 10 1 9.993257328822617 16.385695193896225 17.184429336888908 0 0 0
1504 10 1 10.904719233217152 17.205399017670228 18.044657140731587 0 0 0
1505 10 1 11.544408123823068 16.464204977665485 19.21996340666274 0 0 0
1506 10 1 12.290988306971713 17.263193129627826 20.245312886457413 0 0 0
1507 10 1 12.978282371634094 16.38338701529932 21.291967266621867 0 0 0
1508 10 1 13.86295833078084 17.203562290140553 22.267608829464102 0 0 0
1509 10 1 14.350845418832542 16.254600590327403 23.33250151844525 0 0 0
2040 14 1 18.295854130360418 21.333228804669435 27.66957053241106 0 0 0
7593 51 1 12.301260252893279 3.8477687583200173 32.038670237620025 0 0 0
3957 42 1 14.034392258240032 19.439160748000575 15.386041739975468 0 0 0
3506 24 1 18.460403663415626 15.014573375030416 22.641167610713346 0 0 0
9639 3 1 6.896577726536701 25.07007230796537 25.03087805232377 0 0 0
9638 3 1 6.386573606006674 25.902104373109005 23.836542926349175 0 0 0
8574 41 1 6.745641457923676 14.324706163716058 31.054526365576283 0 0 0
602 55 1 2.047787929765121 5.149095278619341 12.344885127545876 0 0 0
1724 10 1 7.541643682501667 17.184348977477867 14.229188367906453 0 0 0
1725 10 1 8.471358831464006 16.422829778045248 15.14237418305299 0 0 0
1726 10 1 9.259020057391558 17.19505857909082 16.196205631763437 0 0 0
1727 8 1 7.3801169098394235 19.350312205529498 19.97063386122569 0 0 0
1728 8 1 7.999246386499695 18.49863054078147 21.100405513242727 0 0 0
1729 8 1 8.92435791414442 19.32373389857829 22.00222472828291 0 0 0
1730 8 1 9.520209350545956 18.545899422636214 23.217270839744035 0 0 0
1731 8 1 10.613527352407113 19.234873924541247 23.98664541360941 0 0 0
1732 8 1 10.938678903993575 18.536349285581764 25.280612993888198 0 0 0
1733 8 1 12.119088893302672 19.196730745826617 26.049296349940086 0 0 0
1734 8 1 12.419815485138892 18.54730130357372 27.372795744202637 0 0 0
1735 8 1 13.584431514281803 19.124132562333873 28.0578767984504 0 0 0
1736 8 1 13.75547703409233 18.65504874225572 29.495402231283734 0 0 0
7804 34 1 1.3246637922474633 5.8364274219275565 24.264309391914853 0 0 0
1271 24 1 9.442914027875794 12.386273387171615 15.755494588735157 0 0 1
8189 56 1 7.002996815464289 9.877664881797626 32.682304812882066 0 0 0
1496 9 1 4.76695114553959 14.831717248201707 15.6587325202735 0 0 0
9641 3 1 8.365821980061053 25.131516396424136 27.167396025968472 0 0 0
9637 3 1 5.541764832915182 25.01993008998822 22.94330017335282 0 0 0
4409 30 1 12.787948466136516 23.120737955548492 14.71152795357496 0 0 0
7138 48 1 1.6637625300817385 26.165495256007567 30.044937792430645 0 0 0
4630 31 1 17.053526397971726 26.419725786609618 13.261051316166284 0 0 0
1947 8 1 4.293326536469165 19.511453764692632 15.863689093988722 0 0 0
1948 8 1 5.137101725316748 18.731475963468117 16.839726826558064 0 0 0
1949 8 1 5.940842713391154 19.465903650634864 17.867481577105174 0 0 0
1950 8 1 6.769897760046761 18.61251550724008 18.74130939820123 0 0 0
2030 14 1 11.114627244352842 21.543029934194806 17.423752590307075 0 0 0
2031 14 1 11.335410924040366 21.308497266556337 18.881561676150742 0 0 0
2032 14 1 12.622081192535 21.86702328976486 19.380007601397494 0 0 0
2033 14 1 12.865242388408143 21.09668868465471 20.714918305811807 0 0 0
2034 14 1 14.113729337338912 21.47656775555206 21.481648776915762 0 0 0
2035 14 1 14.14809317572497 20.77590119614658 22.861697084102197 0 0 0
2036 14 1 15.507167295299384 21.108441958751595 23.495157691610057 0 0 0
8092 55 1 4.224504839925897 7.7454280635338 20.220213043988178 1 0 0
1267 24 1 6.5386649506896015 12.628112957848229 11.672057123924283 0 0 1
7578 51 1 1.1696702131133472 2.7751325619549596 16.298359547338958 0 0 0
8955 14 1 5.579678913755141 19.033065876895645 30.450319589138605 0 0 0
2818 4 1 17.212577021241305 5.885594402234406 19.08365257635546 0 0 0
13 1 1 16.987561726428563 1.6272923400827881 32.05318041934001 0 0 0
2815 4 1 14.75994365087658 5.306623078799546 16.134716464195222 0 0 0
2105 14 1 7.960300628513678 21.240433798943 13.623605927161478 0 0 0
2106 14 1 8.15359971387824 20.798099095420007 15.039185032721967 0 0 0
2107 14 1 9.591491372870461 21.26391198653701 15.530721961422596 0 0 0
2108 14 1 9.72604209228216 21.22486076952613 17.007429692319604 0 0 0
2109 15 1 5.386602232885577 22.943348811787303 16.832280622679416 0 0 0
2110 15 1 6.422400246059818 23.75732654855107 17.606044414148364 0 0 0
2111 15 1 7.22418990392577 23.068960766564658 18.743899509004855 0 0 0
2112 15 1 7.8295010817154065 24.07035252204867 19.73349284549753 0 0 0
2113 15 1 8.558406668927827 23.212988973259673 20.788061927269045 0 0 0
2114 15 1 9.512799658387365 23.976774148902596 21.732981466627933 0 0 0
2115 15 1 9.972750782949797 23.036298508253683 22.83582288942127 0 0 0
2116 15 1 11.135905385754267 23.726601169795543 23.61513006667113 0 0 0
2117 15 1 11.55554114674119 22.826419158577828 24.768442209066528 0 0 0
2118 15 1 12.501392157330253 23.54335394676246 25.778017130487566 0 0 0
2119 15 1 12.38833847662422 23.14414159821678 27.275248526215417 0 0 0
2120 15 1 13.570652396614609 23.650989024328535 28.06358959994232 0 0 0
9346 10 1 7.614607605016538 23.455292431923635 31.904828408123272 0 0 0
3725 27 1 14.833262347701341 14.382825014153237 17.2176359355327 0 0 1
3721 27 1 12.353566064045175 14.60559803689197 12.857134005840198 0 0 1
3279 18 1 12.038682601988878 9.949945016738155 12.462262776892484 0 0 1
9259 64 1 10.848929948799157 20.758870358996482 31.61077472479966 0 0 0
613 51 1 18.051686293182502 7.153719710159149 26.740542850000658 0 0 0
8866 61 1 4.64852848638856 17.024755947696374 22.171591576550618 0 0 0
9646 3 1 12.121346690703229 26.26954162068677 32.18171995613599 0 0 0
2185 15 1 3.214619372414002 24.04105228146491 13.679180365497938 0 0 0
2186 15 1 3.5745573265947677 23.143982529484163 14.876750527717075 0 0 0
2187 15 1 4.859630496504585 23.57792297395419 15.5482850018596 0 0 0
2346 16 1 12.627261614282645 26.178609359329382 19.66577469171866 0 0 0
2347 16 1 13.002486114435394 25.347958854200577 20.81245765267547 0 0 0
2348 16 1 14.169117977784447 25.93756834985517 21.63655436034088 0 0 0
2349 16 1 14.613462308395125 25.153304678385897 22.870000782061897 0 0 0
2350 16 1 15.667379422379152 25.862402994532623 23.759855196218105 0 0 0
8341 38 1 2.4765817277351 11.728420563398702 18.461652140166485 0 0 0
4412 30 1 15.630518986013904 23.973002728324207 17.349194416127688 0 0 0
604 55 1 3.8698289841185396 5.203619113359812 14.017435167547404 0 0 0
3964 42 1 18.693981221829798 18.84815393227467 22.895172426770536 0 0 0
9341 10 1 3.515035147370287 22.84795078180443 27.035159501580836 0 0 0
3961 42 1 16.81262603947083 19.47370330601837 19.656271553217735 0 0 0
8868 61 1 6.121028982173226 17.050938080555756 24.1994096989911 0 0 0
1273 24 1 11.085149202556602 12.5572279979793 17.61737838527194 0 0 1
9340 10 1 3.2042976644590677 23.49330536583714 25.71621407672737 0 0 0
2421 16 1 9.20066554401611 25.778704923309352 15.792351887092764 0 0 0
2422 16 1 9.991419192963358 25.051310184815488 16.857289487855503 0 0 0
2423 16 1 11.066269098860095 25.96760554391321 17.520820021163992 0 0 0
2424 16 1 11.54197298638153 25.40919893138086 18.830782491032608 0 0 0
2425 11 1 13.105845087511545 1.3464593117577635 13.276599172385037 0 0 0
2426 11 1 13.178258079330403 1.0312622082184453 14.802185273060815 0 0 0
2427 11 1 14.396086434276429 1.5775772774221986 15.469532211019743 0 0 0
2428 11 1 14.517606134379111 1.024255647322572 16.89493821629128 0 0 0
2429 11 1 15.785339331413747 1.5459951600080275 17.583460109413842 0 0 0
2430 11 1 16.038997777094043 0.8265620951919739 18.920392881283156 0 0 0
5029 34 1 2.820082483050302 3.9415429815804903 32.318468151094436 0 0 0
1493 28 1 2.6885361514265274 14.240144659151222 12.512160144232892 0 0 1
392 55 1 13.016867537447261 5.081123975636432 26.38483822584676 0 0 0
1043 7 1 1.7847169831939242 10.723943250660016 11.37254408410441 1 0 1
3281 23 1 17.89310632066259 12.35352471727429 14.786811155223106 0 0 0
8339 38 1 0.8059235273485914 12.046639827675099 16.513557017107612 0 0 0
1514 10 1 18.345436419499137 16.992130750554686 28.38223826639849 0 0 0
7365 16 1 7.76542901068899 1.6205899852716101 31.676666187166873 0 0 0
1739 8 1 16.68284878036658 18.718802217305647 32.1028820341972 0 0 0
2344 40 1 6.876310103251173 24.97327102399518 12.778383371225074 0 0 1
5854 38 1 2.28689472990036 12.294783995630183 31.188248616330114 1 0 0
5479 22 1 2.7085357563942347 8.386582250446986 32.06814305448641 0 0 0
2104 14 1 6.708597056536222 20.725715099844752 12.931750654053031 0 0 0
2812 4 1 12.935521358892894 5.98690862360889 12.87976926400255 0 0 0
2813 4 1 13.233564255353063 5.267516070094127 14.179734169681968 0 0 0
823 6 1 7.608739410569355 7.60210841500958 12.16998305696298 0 0 1
8952 14 1 3.8352942410744144 18.648957068146068 27.056593078366966 0 0 0
7364 16 1 6.73596199196473 0.7789414556348309 31.074403959641764 0 0 0
5027 34 1 1.2360649459087334 3.9437714440098803 30.29638506193093 1 0 0
5855 38 1 2.2436983555540966 12.302263351600756 32.732641343185406 0 0 0
3199 20 1 13.732498906455275 10.205975301913908 14.364502159640983 0 0 0
9257 64 1 9.270223677428007 20.898312063684095 29.499657954422368 0 0 0
3123 20 1 15.28015548786104 10.574752471793765 17.948697933409107 0 0 0
3124 20 1 16.09039405628227 9.592523567330728 18.761538417220592 0 0 0
3125 20 1 16.740197238034597 10.341566254821894 19.92130591982375 0 0 0
9248 64 1 3.325858224926105 21.01534692226706 19.6781535333353 1 0 0
6693 20 1 2.725437672117972 21.671273607825405 31.838093632575024 0 0 0
5476 22 1 0.7199542807017619 7.719858186697123 28.767482797510272 0 0 0
2121 15 1 13.722644352007661 22.794416302353007 29.326280571491125 0 0 0
829 51 1 12.374987333085876 7.545678373873381 18.48933752953603 0 0 0
4629 31 1 16.01905983352254 25.645267026060015 12.476134946003816 0 0 0
3201 20 1 14.881305505217432 9.96438952408207 16.613594415647484 0 0 0
1944 8 1 1.9200750761921892 18.864952699379323 12.86866838789047 0 0 0
7357 16 1 1.5436523151954178 1.8350880523130466 23.9155291648403 0 0 0
9636 3 1 4.616303711411126 25.81796847146135 22.033353180905163 0 0 0
4414 30 1 17.320244699527976 23.72265002919551 19.208071646157148 0 0 0
1510 10 1 15.155489343395953 17.08418231768898 24.374394152970503 0 0 0
8569 41 1 2.725159856373922 14.948006774866782 26.051097960140844 0 0 0
7812 34 1 7.6885522190671 6.055559632492186 32.301908064450416 0 0 0
5028 34 1 2.526929997328289 3.400212373827869 30.94570311116463 0 0 0
8875 61 1 11.148723229192775 16.03524890378273 31.765551570552475 0 0 0
1269 24 1 7.917879384127639 12.312650695352016 13.761225725036399 0 0 1
7590 51 1 10.274004885215598 2.9201881488350048 28.739646071369858 0 0 0
3722 27 1 12.463079326953869 15.25158494886363 14.221174713349033 0 0 1
2590 19 1 16.448772844594334 3.2646040946787496 12.434705284440417 0 0 0
3505 24 1 18.074180572698637 14.321675201871727 21.316031664373995 0 0 0
5478 22 1 2.1996672617341 7.723603900213229 30.8425910394096 0 0 0
9249 64 1 3.443359396727828 20.900258891261107 21.233411149313724 1 0 0
9256 64 1 9.045433976214051 21.34438856169418 28.07931490135846 0 0 0
8354 38 1 11.678021613256146 12.470904524475404 32.36213854869328 0 0 0
1268 24 1 7.277672423327817 11.616213935077116 12.580037234459537 0 0 1
4187 61 1 17.490190138757843 21.373787809969265 14.78805835378242 0 0 0
3955 42 1 12.631186467369405 19.056957500464357 13.364458826113827 0 0 0
3956 42 1 12.670961108589559 19.055803604266064 14.87053306663938 0 0 0
8182 56 1 2.8056913818435 9.874361336689969 24.780951219015364 0 0 0
2431 11 1 17.378509555583015 1.1001527306910304 19.539750332402527 0 0 0
2123 15 1 15.521205108932078 22.651626163055333 31.30058721708264 0 0 0
3278 18 1 11.0969417280697 10.763312951013996 11.561960158607734 0 0 1
2037 14 1 15.794820647324313 20.576134571185683 24.921819875108405 0 0 0
9260 64 1 12.057790977303966 21.483473209427853 32.265892190751245 0 0 0
3952 26 1 17.19124574125596 16.912539615536655 14.875853858007481 0 0 0
2966 48 1 18.1863723957724 7.839349730345846 14.578400722642016 0 0 0
2965 48 1 17.148550304186866 8.591938351862845 13.662660256181308 0 0 0
828 51 1 11.044568776708212 7.796613308787278 17.736680615372 0 0 0
1945 8 1 2.883526855041515 19.624328963098048 13.793960806223241 0 0 0
7805 34 1 2.6936940629725172 5.60941899900209 24.850767730477244 0 0 0
2811 4 1 11.792518364581584 5.242775255756101 12.157463617022007 0 0 0
8103 55 1 12.066424403326472 7.946827129384873 32.20250549355952 0 0 0
2820 4 1 18.578998869787974 5.918133821454751 21.253017225544664 0 0 0
9247 64 1 1.8818608615825854 20.919696422265112 19.25648912883122 1 0 0
7592 51 1 11.719516939748232 3.022282510203008 30.85559228096483 0 0 0
824 6 1 7.886303550949636 8.085951783747543 13.605814722439346 0 0 1
2819 4 1 17.813357104024796 5.080264398036232 20.233521386908965 0 0 0
4415 30 1 17.487322652130672 23.45941099260518 20.727799579298186 0 0 0
8950 14 1 2.4037928500160937 18.516984848257305 24.875809581211982 0 0 0
2351 16 1 15.996336529583854 25.20682139178949 25.13090955432287 0 0 0
8873 61 1 9.5393125502261 16.149329588702418 29.58395605801471 0 0 0
3954 42 1 11.190005349478664 18.922648128333297 12.841231993176653 0 0 0
9255 64 1 7.731174016786413 20.937197296834963 27.436572414688786 0 0 0
9254 64 1 7.528258098672422 21.465031222596643 25.97196963380999 0 0 0
2184 15 1 2.0216297658134437 23.32826476150926 13.024526011787396 0 0 0
8871 61 1 8.249996723692929 16.344977824782916 27.43536089840352 0 0 0
9632 3 1 1.8140364476624997 25.746939472529906 17.725574624116575 0 0 0
393 55 1 13.566393445862255 5.821107429420802 27.602650269477618 0 0 0
3043 48 1 16.68517790478484 7.730808871295828 12.468429800978239 0 0 0
8876 61 1 11.988990865763643 16.89649877447215 32.630656786814455 0 0 0
3724 27 1 13.837231074737627 15.15236438269934 16.34430981726952 0 0 1
4413 30 1 15.861457140496253 23.499342753840175 18.792362535841438 0 0 0
3503 39 1 16.358817651853926 12.248971712237879 12.722310393766552 0 0 1
394 55 1 14.660483603890471 5.1226596656136145 28.44106477545761 0 0 0
4411 30 1 14.188278767939016 23.581670126153387 16.871668361257317 0 0 0
8865 61 1 3.758118584713679 16.164581345634883 21.264848366537095 0 0 0
3200 20 1 14.063295108351364 10.87218329642693 15.719282436294424 0 0 0
827 51 1 10.972124308795618 7.697265005134121 16.182367827920466 0 0 0
8095 55 1 5.915636280320903 8.046030558436039 23.798197872102243 0 0 0
395 55 1 15.081704748943904 5.865576401333316 29.75058304539073 0 0 0
6233 41 1 1.873726627586334 16.54998607529591 30.857035523310127 1 0 0
9634 3 1 3.1666481272106224 25.751932430702507 19.978023380168782 0 0 0
73 1 1 2.487898062473956 0.6973403413199178 12.54326285791334 0 0 0
9640 3 1 7.728324383595197 25.88432782346346 25.985346995356966 0 0 0
9251 64 1 5.067780961384451 20.67041360508442 23.134872073370097 0 0 0
9342 10 1 4.603143367013221 23.530340058693383 27.726555221615783 0 0 0
1045 7 1 3.3541707163497447 10.655843075889392 13.382369853012767 0 0 1
7139 48 1 2.192231234857177 25.419010650934105 31.299276140417433 0 0 0
2038 14 1 16.760681492612132 21.358496198293896 25.721600071638736 0 0 0
7806 34 1 2.78214227096515 5.79008399318861 26.396561796845432 0 0 0
8864 61 1 3.2627282490621834 16.903161794110822 19.984160546454007 0 0 0
8949 14 1 0.9785151782161088 18.661237729265583 24.317270987249373 0 0 0
9635 3 1 3.986221913734022 24.92121263653383 20.95907000336929 0 0 0
9253 64 1 6.280975823405129 20.908038700503923 25.25866308930595 0 0 0
8872 61 1 9.213084801297967 17.06516376136294 28.357665539498196 0 0 0
1059 8 1 17.858099713272306 12.741070611212313 28.423722450422225 0 0 0
8181 56 1 1.4405411743083527 10.217514364065185 24.19631405430527 0 0 0
8863 61 1 2.294496526721177 16.155943006888187 19.045502810836478 0 0 0
7360 16 1 3.9612858458187454 0.6547955358769253 26.80587683663952 0 0 0
7361 16 1 4.743854365333874 1.492831309078546 27.745449348471816 0 0 0
7362 16 1 5.255791700064786 0.6829769891595632 28.9638232569017 0 0 0
7363 16 1 6.339220741526501 1.352888795291364 29.778945154988417 0 0 0
2592 19 1 17.661709227118873 3.3681268911219986 14.613237998430307 0 0 0
8183 56 1 2.7543915401623225 10.071491602049534 26.29728619827138 0 0 0
1946 8 1 3.463648676214861 18.69524127762788 14.868874707418964 0 0 0
4410 30 1 14.053371488648256 23.725512869637374 15.39054279340435 0 0 0
4408 30 1 12.409345226266833 23.77306014378056 13.379631047015389 0 0 0
7589 51 1 9.097120098069519 3.608655604017009 28.021934322486793 0 0 0
3727 24 1 16.37201752737837 14.324220625365077 19.34259943180802 0 0 0
1737 8 1 15.143411494330957 19.078020871130327 30.054260152006616 0 0 0
7579 51 1 1.4760403387816567 3.442846435480712 17.62595417992412 0 0 0
7580 51 1 2.489582884725232 2.777224424088417 18.55377515954766 0 0 0
7581 51 1 3.1550259653191484 3.6245016358523343 19.588847689698774 0 0 0
7582 51 1 4.101262262951374 2.8793198906291915 20.530587365705372 0 0 0
7583 51 1 4.741424076095398 3.701484574341392 21.579362767414313 0 0 0
7584 51 1 5.568514933711707 2.9291661013296446 22.639697880950273 0 0 0
7585 51 1 6.08963734372775 3.788311425301481 23.788520122975676 0 0 0
7586 51 1 7.029657911660557 2.9402839617619265 24.62430685167726 0 0 0
7587 51 1 7.47664602946596 3.6463739432677573 25.873959705866547 0 0 0
7588 51 1 8.77670644097318 3.0761516891967333 26.56839960730203 0 0 0
8017 54 1 1.6444926575492744 8.055899715340196 17.483211581561434 1 0 1
2345 40 1 7.791384567295199 25.659206802598362 13.747578529669502 0 0 1
2183 15 1 1.9537974827180562 23.661858319971607 11.504664614982135 0 0 0
4186 61 1 17.31372066003263 21.979718316911793 13.449767986225106 0 0 0
5477 22 1 1.165405694092843 8.434883575142596 30.059150819734157 0 0 0
3726 24 1 15.223153403918205 15.042634280903918 18.56173975910361 0 0 0
2352 16 1 17.125855298695512 25.752735402613915 25.96562117542617 0 0 0
397 55 1 16.613670504691978 5.963717839095858 31.617190093727945 0 0 0
9633 3 1 2.607575806768155 24.93497033293235 18.82283046929785 0 0 0
8566 41 1 0.7930624628871399 14.109170263084998 22.76611599095967 0 0 0
7808 34 1 4.525776273032545 5.879561186047698 28.319371018841295 0 0 0
7809 34 1 6.0195085763906375 5.814286441656324 28.722325733825325 0 0 0
7810 34 1 6.207461732100204 6.011795288395699 30.22615117399718 0 0 0
8874 61 1 10.56110243324745 16.797173337231015 30.523502123949147 0 0 0
8188 56 1 6.949306041606211 9.86186028172258 31.166841327545917 0 0 0
3962 42 1 17.249380532389832 18.6604435705076 20.919109339330415 0 0 0
8187 56 1 5.587676863780162 10.26183571254723 30.59153206200776 0 0 0
9246 64 1 1.6902600915912231 20.984623235392984 17.794021884677683 1 0 0
3282 23 1 18.233057602920518 13.148866669288237 16.047615503592823 0 0 0
8096 55 1 6.963878870502459 7.278472741759814 24.662884940483845 0 0 0
8097 55 1 7.27798210163874 7.923858697121737 26.085735982099642 0 0 0
8098 55 1 8.600409156253976 7.398149927253516 26.635137107831127 0 0 0
8099 55 1 9.059538987286043 7.910426358728143 28.046551407815514 0 0 0
8100 55 1 10.256889724465156 7.181336952632776 28.652773945071083 0 0 0
8101 55 1 10.521392242498125 7.641559470703542 30.123749288355224 0 0 0