LAMMPS data file via write_data, version 29 Oct 2020, timestep = 32000000

10752 atoms
2 atom types
10752 bonds
3 bond types
10752 angles
3 angle types
10752 dihedrals
3 dihedral types

-1.4019591925125496e-01 3.1008115919238300e+01 xlo xhi
-1.2113307625790526e-01 2.6791853076229280e+01 ylo yhi
 3.6835443114785761e+01 2.4616391688438125e+02 zlo zhi

Masses

1 14
2 15

Pair Coeffs # lj/cut/omp

1 0.0914 3.95
2 0.1947 3.75

Bond Coeffs # harmonic/omp

1 449.5 1.53
2 449.5 1.53
3 449.5 1.53

Angle Coeffs # harmonic/omp

1 62.0967 114
2 62.0967 114
3 62.0967 114

Dihedral Coeffs # opls/omp

1 1.411 -0.271 3.145 0
2 1.411 -0.271 3.145 0
3 1.411 -0.271 3.145 0

Atoms # molecular

1            1            1     0.237124      17.1155      36.8807
2            1            1   0.00497847      18.2662       37.816
3            1            1      1.27984      18.8089      38.4883
4            1            1     0.858866      19.8445      39.4671
5            1            1     -0.20527      19.3969      40.4229
6            1            1      30.7501      20.4722      41.4956
7            1            1      29.7406      20.1016      42.5113
8            1            1      29.1469       21.314      43.1337
9            1            1      28.2636      20.7196         44.2
10            1            1      27.7854      21.7314      45.2436
11            1            1      26.9706      21.2422        46.36
12            1            1      26.6827      22.4162      47.1935
13            1            1      25.9394      21.9063      48.4092
14            1            1      25.7381      23.1033      49.2979
15            1            1      24.7293      22.6082      50.2111
16            1            1       24.631      23.6375      51.2774
17            1            1      23.2552        23.44      51.8797
18            1            1      22.8989      24.6321      52.7574
19            1            1      23.9277      24.6646      53.9142
20            1            1      23.6569      25.7983       54.764
21            1            1      24.6616       25.647      55.9097
22            1            1      24.6064   -0.0655948      56.6849
23            1            1      25.7551     0.191421      57.6356
24            1            1       26.374       25.838      58.2193
25            1            1       27.536      26.3012      59.0229
26            1            1      27.0179     0.459445      59.9735
27            1            1      28.0031     0.692308       61.011
28            1            1      27.9956      1.97267       61.879
29            1            1      29.0175      2.00693       63.078
30            1            1      28.8333      3.25482      63.9726
31            1            1      29.9228      3.39822      64.9679
32            1            1      29.6252      2.37004       66.097
33            1            1       30.553      2.45424      67.2993
34            1            1      30.5742      1.11927      68.0406
35            1            1     0.573777      1.14623           69
36            1            1     0.512968      2.51627      69.7952
37            1            1      1.31277      2.38518      71.0061
38            1            1      1.35885      3.63401      71.7756
39            1            1    0.0549471       4.0654      72.3543
40            1            1      30.5036      2.83794      72.9798
41            1            1      29.3126      3.37474      73.7536
42            1            1      29.8273      4.37843      74.7035
43            1            1      28.7286      5.05918      75.5771
44            1            1      29.1579      5.79939      76.7729
45            1            1      28.0099      6.28465      77.5955
46            1            1      28.4961      7.05363      78.8248
47            1            1       27.403      7.40928      79.9009
48            1            1      27.4552      8.55197      80.7026
49            1            1      26.5923      8.50287      81.9687
50            1            1      26.5051      9.77043      82.7946
51            1            1      25.6042      9.61935      83.9966
52            1            1      26.2501      8.57869      84.8749
53            1            1      25.1434      8.35173      85.8817
54            1            1      25.4108      7.35424      86.9837
55            1            1      26.5509       7.8197      87.9114
56            1            1      26.9973      6.60627      88.7263
57            1            1      28.0808      7.03296      89.7329
58            1            1      27.6247       8.0098      90.8199
59            1            1      28.7074      8.39085      91.7901
60            1            1      28.0048      9.39358       92.654
61            1            1      27.5445      8.56416      93.7879
62            1            1      27.3237      9.58069      94.8906
63            1            1      27.4972      11.0887      94.4641
64            1            1      27.3644      11.8971      95.7203
65            1            1      26.0758      11.6971      96.4582
66            1            1      26.0586      12.3794      97.8717
67            1            1      25.1788       11.733      98.8119
68             1             1       24.9001       12.5687       100.078
69             1             1       23.7492       11.7778       100.784
70             1             1       23.2355       12.3408       102.055
71             1             1       21.9162       11.8604       102.399
72             1             1       21.3066       12.7141       103.385
73             1             1       22.4177       13.4641       104.178
74             1             1       21.9632       14.0719       105.519
75             1             1       23.2313       14.5993       106.206
76             1             1       22.8772       15.0136       107.611
77             1             1       23.9225       15.9503       108.162
78             1             1       24.8474       15.1821       108.999
79             1             1       24.1453       14.1513       109.756
80             1             1       25.1897       13.8875       110.793
81             1             1       25.7991       15.1812       111.424
82             1             1       26.9479       14.7572       112.393
83             1             1       26.5716       13.3892       112.978
84             1             1       27.6838       12.8948       113.917
85             1             1       27.5797       12.9046       115.376
86             1             1       27.1791       11.4965       115.792
87             1             1       27.2893       11.6095       117.311
88             1             1       26.9009       10.3438       118.066
89             1             1        27.228       10.3549       119.504
90             1             1       26.7094       9.16523       120.213
91             1             1       26.8469       9.55511       121.666
92             1             1       26.6239       8.42389       122.632
93             1             1       27.4236        8.6788       123.941
94             1             1       27.4524        7.4265       124.906
95             1             1       28.5411       7.42608       125.874
96             1             1       28.3781       6.14684       126.667
97             1             1       29.3207       6.24365       127.917
98             1             1       29.0821        5.0831       128.833
99             1             1       29.9917       5.10555       130.028
100             1             1       30.2748       3.78794       130.622
101             1             1       31.0059       4.00222       131.904
102             1             1       30.9622       2.70605       132.696
103             1             1      0.666373       2.82267       133.903
104             1             1      0.522213       4.13774       134.724
105             1             1       1.70864       4.19351       135.696
106             1             1       1.96756       2.97632       136.482
107             1             1        2.7219       3.39705        137.74
108             1             1       2.80573       2.31124       138.779
109             1             1        3.7732       2.50921        139.97
110             1             1        3.8164       1.29452       140.859
111             1             1        4.9851       1.28455       141.896
112             1             1       5.38036       2.68376       142.248
113             1             1       6.59849       2.62544       143.091
114             1             1       6.00263       2.10018       144.333
115             1             1       7.13006       1.55854       145.158
116             1             1       7.69635       2.72658       146.016
117             1             1       6.86685         3.211       147.029
118             1             1       7.97651       4.03435       147.747
119             1             1       7.39307       4.85142       148.838
120             1             1       8.37274       5.36395       149.873
121             1             1       9.30416       4.23396       150.267
122             1             1       10.1778       4.74939       151.354
123             1             1       9.50463       5.77871       152.129
124             1             1       10.0317       5.87853       153.507
125             1             1       9.59936       7.10406       154.341
126             1             1       10.6559       7.45117       155.363
127             1             1       10.0458       8.32771       156.398
128             1             1       11.0911       8.86934        157.35
129             1             1       11.8088       7.90962       158.226
130             1             1       12.8799        8.5257       159.073
131             1             1       12.3435       8.96537       160.418
132             1             1       13.4267       9.50038       161.357
133             1             1       13.0477       9.44867       162.781
134             1             1       12.8169       7.96786       163.076
135             1             1       12.2942       7.66469       164.455
136             1             1       12.6839       6.37251       164.987
137             1             1         12.15       6.19747       166.401
138             1             1       13.0354       5.08526        167.03
139             1             1        12.522       4.94344       168.468
140             1             1       11.0322       5.07615       168.471
141             1             1       10.4856       4.39276       169.723
142             1             1       11.5368       3.73169       170.516
143             1             1       10.7638       3.15873       171.641
144             1             1       9.62363        4.1015       172.083
145             1             1       8.78403       3.34234       173.102
146             1             1       9.70084       2.40283       173.855
147             1             1       8.86668       1.74273       175.029
148             1             1       7.70714       2.59548        175.54
149             1             1       6.93628       1.67499       176.483
150             1             1       7.76302       1.02196       177.611
151             1             1       6.80482       0.13857       178.404
152             1             1       5.81248      0.963988       179.144
153             1             1       4.89855      0.301658       180.131
154             1             1       5.65201       26.3184       181.067
155             1             1       4.69704        25.472       181.822
156             1             1       5.51826       24.6765       182.782
157             1             1       4.70071       23.9335       183.853
158             1             1       5.60547       23.0361       184.705
159             1             1       6.45564       23.9251       185.582
160             1             1       7.17319        23.445       186.782
161             1             1       6.46735       22.6263       187.859
162             1             1       7.32155       21.7943       188.865
163             1             1       6.46665       21.1614       189.925
164             1             1       7.30263       20.0764       190.592
165             1             1       6.67528       19.5134       191.815
166             1             1       7.68312       18.8033         192.7
167             1             1       6.73412       18.1305       193.666
168             1             1       5.65054       19.1339       193.782
169             1             1       4.59538       18.7094       194.772
170             1             1       5.12472       18.0426       196.046
171             1             1       3.91089       17.3277       196.616
172             1             1       4.35405       16.5223       197.894
173             1             1        5.6494       15.8771       197.867
174             1             1       6.23941       15.8536       199.236
175             1             1       5.66306       16.9076       200.122
176             1             1       6.55989       17.4677       201.115
177             1             1       5.83625       18.4151       202.052
178             1             1       6.53591       19.0583        203.17
179             1             1       5.66363       19.8179       204.143
180             1             1       6.49194       20.7017        205.06
181             1             1       5.60686       21.2564       206.117
182             1             1       6.60107       22.0078       206.859
183             1             1       7.12927       21.2552       208.071
184             1             1       8.05514       22.0613       208.995
185             1             1       8.22579       21.4909       210.462
186             1             1       7.83885       20.0553       210.397
187             1             1       7.93875       19.2137       211.642
188             1             1       7.25496       19.8506       212.863
189             1             1       7.21605       18.8255       213.992
190             1             1       6.20397       19.0813       215.106
191             1             1       6.32297       20.5707       215.365
192             1             1       5.49061       21.0991        216.48
193             1             1       4.41055       20.1696        216.99
194             1             1       3.58288       21.1483       217.758
195             1             1       4.60725        21.595       218.742
196             1             1       4.02609       22.6747       219.686
197             1             1       5.02164       22.9674       220.777
198             1             1       5.32231       21.6949       221.499
199             1             1       6.34464       21.7457       222.582
200             1             1       6.34523       20.4971       223.415
201             1             1       5.25562       20.6475       224.481
202             1             1       5.12841       19.5575       225.531
203             1             1       6.47455       19.4238       226.199
204             1             1       6.53996       18.2251       227.087
205             1             1       5.10298       18.1783       227.659
206             1             1       5.01379       17.2236       228.765
207             1             1       6.39572       16.8001       229.317
208             1             1       6.25249       15.7986       230.409
209             1             1       4.93081       15.7503       231.181
210             1             1       4.94799       14.5811       232.102
211             1             1       6.17515       14.9434       232.914
212             1             1       6.67252       13.8124       233.827
213             1             1       5.42182        13.338       234.511
214             1             1       4.92476        14.377       235.438
215             1             1       3.93242       13.8008       236.446
216             1             1       3.68722       14.7181       237.561
217             1             1       2.90436       14.0393       238.696
218             1             1       2.75287       14.7524       239.984
219             1             1       1.66075       14.2848       240.915
220             1             1       1.41974       15.3548       241.955
221             1             1      0.415469       14.8703         242.9
222             1             1       0.25385       16.1078       243.684
223             1             1       1.47829       16.6595        244.29
224             1             1       1.28326       17.6822       245.309
225             2             1       4.45731       17.8277       242.823
226             2             1       5.73613       18.5136       243.256
227             2             1       5.48757       19.5431       244.313
228             2             1        4.5706       18.9993       245.317
229             2             1       3.97437       19.9248       36.9981
230             2             1       5.16963       20.5486       37.6696
231             2             1       4.96224        21.932       38.4814
232             2             1       4.23094       21.4272       39.7003
233             2             1       3.88459       22.5687       40.6576
234             2             1       2.89801       22.0724       41.6442
235             2             1       2.65398        23.244       42.5657
236             2             1       1.54942       22.6913       43.5162
237             2             1       1.12942        23.819       44.5459
238             2             1      0.244041        23.186        45.606
239             2             1       30.9349       24.3066        46.622
240             2             1       30.1187        23.574       47.6844
241             2             1       29.5936       24.6736       48.5078
242             2             1        28.866       24.3603       49.8188
243             2             1       28.1714       25.5909       50.4324
244             2             1       27.5892       25.1288       51.7133
245             2             1       26.7784       26.1305       52.5098
246             2             1       27.7964       26.3741        53.567
247             2             1       27.3571      0.571679       54.5133
248             2             1       28.4415       1.28924       55.2098
249             2             1       29.3562      0.202636       55.9191
250             2             1       30.3672      0.946869       56.7922
251             2             1       29.7011       1.79206         57.84
252             2             1       30.7344       2.26276       58.8251
253             2             1       30.4889       3.22163       59.9597
254             2             1      0.536587       3.35283       60.8384
255             2             1      0.268297       4.22287       62.0084
256             2             1       1.51116       4.47442       62.8461
257             2             1       1.09873         5.422       63.9759
258             2             1       2.16291       5.50115       65.0388
259             2             1       2.13273       4.29313       66.0061
260             2             1       3.35399       4.35514       66.9248
261             2             1       3.22418       3.37856       68.0263
262             2             1       4.34124       3.38877       69.0295
263             2             1       4.18232       4.57519       69.9694
264             2             1       5.39558       4.60167       70.8898
265             2             1       5.37147       5.88419       71.6494
266             2             1       4.61891       5.93212       72.9634
267             2             1       4.55674       7.29052        73.544
268             2             1       3.41127       7.26532       74.5657
269             2             1       2.55759       6.09997       74.3978
270             2             1       1.36407       6.60395       75.3347
271             2             1       1.78363       7.38926       76.5887
272             2             1      0.748696       7.79603       77.6089
273             2             1       1.12557       8.85284       78.6447
274             2             1    0.00774348       9.14463       79.6252
275             2             1      0.107326       10.3921       80.4312
276             2             1       30.2482       10.6277       81.5607
277             2             1       30.4244        11.947       82.2752
278             2             1       29.4843       12.0681       83.5033
279             2             1        29.512         10.82       84.2363
280             2             1       28.6468       10.9273       85.4726
281             2             1       29.1135       9.78759       86.3527
282             2             1        30.322       9.87938       87.2674
283             2             1       30.3724       8.78305       88.3162
284             2             1      0.334856       9.07411       89.2987
285             2             1     -0.101904        10.189        90.195
286             2             1       1.10637       10.7532       91.0157
287             2             1       0.66837       11.5455       92.1989
288             2             1       30.9706       10.8197       93.2744
289             2             1    -0.0120643       11.6845       94.5802
290             2             1      0.101294       13.1868       94.3201
291             2             1      0.210122       13.8309       95.7338
292             2             1       30.1103       13.7127       96.6545
293             2             1       30.0954       14.6574       97.7918
294             2             1       29.0094       14.1073       98.5926
295             2             1       28.6908       14.8942       99.8984
296             2             1       27.4698       14.4105       100.748
297             2             1       27.0118        14.993       102.082
298             2             1       25.9602       14.0942       102.767
299             2             1       25.5821       14.9519       103.861
300             2             1       26.8911       15.4855       104.425
301             2             1       26.6581       16.5529       105.593
302             2             1       27.8086       16.4749       106.628
303             2             1       27.8753       17.6766       107.497
304             2             1       28.9056       17.5461       108.612
305             2             1       28.4783       16.3086       109.291
306             2             1       29.2261       16.0378       110.548
307             2             1       29.7902       17.3115       111.107
308             2             1       30.4266       16.9526       112.404
309             2             1       30.2256       15.4557       112.505
310             2             1       30.5054       14.9945       113.933
311             2             1      0.678936       15.6073        114.44
312             2             1       1.14181        14.818       115.618
313             2             1     0.0512095       14.2825       116.419
314             2             1       0.39222       13.4221       117.655
315             2             1       30.1851       13.0001       118.093
316             2             1       30.1332       12.1477       119.286
317             2             1      0.343392        12.087       119.964
318             2             1      0.417598       11.1097       121.133
319             2             1       30.2296       11.3089       121.696
320             2             1       30.0123          10.4       122.828
321             2             1    -0.0161647       10.7305       123.742
322             2             1       30.9107       9.75805       124.948
323             2             1      0.874851       9.89934       126.003
324             2             1      0.903801       8.72057       126.893
325             2             1       1.91575        8.6583       128.047
326             2             1       1.43162        7.5901       128.974
327             2             1       2.64804       7.23194       129.863
328             2             1        2.5185       6.01398        130.72
329             2             1       3.57823       5.83787       131.772
330             2             1       3.41022       4.80536       132.886
331             2             1       4.56556       5.06809       133.853
332             2             1       4.61123       6.51693       134.314
333             2             1       5.59965       6.65799       135.412
334             2             1       5.43153       5.38003       136.162
335             2             1       6.48526       5.37691       137.307
336             2             1        6.0282       4.31354       138.213
337             2             1       7.16024       3.70346       138.965
338             2             1       7.68716       4.81544       139.911
339             2             1       8.84583       4.29185       140.708
340             2             1       9.20723        5.3851       141.644
341             2             1       10.4076       5.06503       142.398
342             2             1       9.89073       4.22223       143.563
343             2             1       10.9471       3.59015       144.387
344             2             1       11.6185       4.63018       145.212
345             2             1       10.7111       5.29063       146.171
346             2             1       11.6153       5.93101       147.236
347             2             1       11.0066       6.64261       148.351
348             2             1        12.162        7.3249       149.147
349             2             1       12.8908       6.33375       149.921
350             2             1       13.8739       7.11664       150.788
351             2             1        13.131       7.76019        151.96
352             2             1       14.1122       8.39756       152.891
353             2             1       13.3879       9.31359       153.945
354             2             1       14.3311       9.81933       154.961
355             2             1       13.6497       10.6749           156
356             2             1       14.7351       11.1448       156.994
357             2             1       15.5052       10.0737       157.747
358             2             1       16.5532       10.7715        158.59
359             2             1       15.9197       11.3936       159.753
360             2             1       17.0388       12.0141       160.565
361             2             1       17.7571       11.3013       161.739
362             2             1       16.5557       10.7148       162.435
363             2             1       17.0829       10.1988       163.763
364             2             1       16.0025       9.62919       164.586
365             2             1        16.509       9.19132       165.935
366             2             1       15.3298       8.50202       166.585
367             2             1        15.486       7.91876       167.952
368             2             1       16.2245       6.58637       167.997
369             2             1       15.7186       6.14944       169.388
370             2             1       14.5118       7.00375       169.868
371             2             1       14.1338       6.65685        171.32
372             2             1       14.2718       5.11072       171.551
373             2             1       13.9746       5.10922       173.051
374             2             1       12.6824       5.67674       173.542
375             2             1       12.3529       5.08073       174.826
376             2             1       12.3849       3.58641       174.814
377             2             1       12.1192       3.23503       176.242
378             2             1       10.9108       4.02933       176.833
379             2             1       10.1359       3.23374       177.859
380             2             1       10.9229       2.31264       178.825
381             2             1       9.99052       1.65085       179.842
382             2             1       9.08056       2.53172        180.59
383             2             1        8.2069       1.59064       181.464
384             2             1       8.93126      0.743356       182.522
385             2             1       8.03432    0.00869778       183.442
386             2             1       8.65122       26.1209       184.483
387             2             1        9.8768    -0.0823333       185.001
388             2             1       10.6061       26.1204       186.129
389             2             1       9.68744       25.8527        187.34
390             2             1       10.4182       24.9786       188.313
391             2             1       9.79202       24.1719       189.418
392             2             1        10.631        23.269       190.262
393             2             1       9.95354       22.4495       191.246
394             2             1       10.9482       21.8591       192.148
395             2             1       10.2177       21.0598       193.119
396             2             1       11.0932       20.1812       193.924
397             2             1       10.2891       19.5608       194.976
398             2             1        9.1732       20.5723       195.377
399             2             1       8.25801       19.9934        196.41
400             2             1       9.17249       19.1532         197.3
401             2             1       8.40948        18.106       197.992
402             2             1       9.22498        17.814       199.188