LAMMPS data file via write_data, version 23 Jun 2022, timestep = 11111117

9706 atoms
2 atom types
9690 bonds
3 bond types
9674 angles
3 angle types
9658 dihedrals
3 dihedral types

0 36.89775039 xlo xhi
0 26.67072 ylo yhi
29.78550292449583 206.96610147554435 zlo zhi
0 5.574487421677398 0 xy xz yz

Masses

1 14
2 15

Pair Coeffs # lj/cut/omp

1 0.0914 3.95
2 0.1947 3.75

Bond Coeffs # harmonic/omp

1 449.5 1.53
2 449.5 1.53
3 449.5 1.53

Angle Coeffs # harmonic/omp

1 62.0967 114
2 62.0967 114
3 62.0967 114

Dihedral Coeffs # opls/omp

1 1.411 -0.271 3.145 0
2 1.411 -0.271 3.145 0
3 1.411 -0.271 3.145 0

Atoms # molecular

1 3 1 7.4499696687926225 0.5353626945982038 36.676861088269895 0 0 0
2 3 1 7.537759146410769 26.44878185499109 37.976890256171146 0 -1 0
3 3 1 8.919574607271867 26.56022048513707 38.648077694059424 0 -1 0
4 3 1 8.991297626203389 25.634596363827697 39.83065356184395 0 -1 0
5 3 1 10.379807354181805 25.302862564653314 40.33675644104636 0 -1 0
6 3 1 10.53066983304343 24.082593352732843 41.14269565457025 0 -1 0
7 3 1 11.978532937286209 24.06333654454536 41.68396956270753 0 -1 0
8 3 1 11.821318759793982 25.136134151710205 42.77460419100796 0 -1 0
9 3 1 13.276025306105796 25.41843943568064 43.32296929902128 0 -1 0
10 3 1 13.36756976585538 26.165917649236327 44.61463506762277 0 -1 0
9342 63 1 0.3868438724130558 23.84781763623098 39.513957051426324 0 0 0
9344 63 1 2.0961450936112587 22.83149433286133 41.087376375668065 0 0 0
2503 49 1 18.543909322224764 25.22057598647562 39.550665867450505 0 -1 0
2500 49 1 17.035287185112647 25.096468236950212 36.565999572614125 0 -1 0
7863 52 1 0.628156962993674 6.399050461472513 39.442115627095674 0 0 0
1724 21 1 7.874035895009358 17.61354407133105 32.78671723522309 0 0 0
1979 41 1 18.205579351238768 20.810311503029823 44.87919801228479 0 0 0
2502 49 1 18.283861397926273 24.067297456029166 38.58790583793367 0 -1 0
220 3 1 3.1770662415961604 3.073158646162697 32.750447749988965 0 0 0
221 3 1 4.5222638099887025 2.9744977246583675 33.48338538133522 0 0 0
222 3 1 4.55156700164907 1.8384003185352242 34.435897188601245 0 0 0
223 3 1 6.037908278440335 1.724051437318177 34.892168614774846 0 0 0
224 3 1 6.047433028077501 1.0460986711827345 36.28824309532479 0 0 0
225 29 1 10.832095536459644 2.95410101292941 35.393294352165455 0 0 0
226 29 1 10.977383713688733 1.8878663418996902 36.416855944367086 0 0 0
227 29 1 12.486951013683132 1.8705481174713388 36.785827169060255 0 0 0
228 29 1 12.649143301827527 0.9084199316349268 37.91942662061295 0 0 0
229 29 1 14.095305306310387 0.8131899490862746 38.619534533292146 0 0 0
230 29 1 14.21606293914717 26.45304628360046 39.721959815675035 0 -1 0
231 29 1 15.40692578147092 26.49835697255425 40.58000453940336 0 -1 0
232 29 1 15.448770458373204 1.1284863921216075 41.39193854267417 0 0 0
233 29 1 16.571193970762447 1.0587442567852525 42.43231328495318 0 0 0
234 29 1 16.904030024454613 2.3894699613063493 43.17482995753475 0 0 0
8799 58 1 0.6345399590895356 18.681419947895254 34.281737149469365 0 0 0
2878 20 1 18.710485339098234 2.090101894697249 38.71881335005142 0 0 0
3919 24 1 10.83144698030934 16.627103691523025 30.175047763640233 0 0 1
1976 41 1 16.5372457368758 18.32424371329149 42.28974364396137 0 0 0
445 29 1 7.90808198860204 5.18574523833714 32.05434024228061 0 0 0
446 29 1 7.9016990416591035 4.135553856631817 33.14318634186842 0 0 0
447 29 1 9.201454012898449 4.102334230360763 33.98071102364651 0 0 0
448 29 1 9.341170494824507 3.036849992302436 34.93918054235789 0 0 0
449 51 1 4.7052850258556 7.64356038446596 33.171063814474934 0 0 0
450 51 1 4.654180695060701 6.640638974528378 34.331065962525756 0 0 0
451 51 1 5.96499985195106 6.398472226467835 35.01689053774713 0 0 0
452 51 1 6.154951021124094 5.18346034193023 35.88305075065716 0 0 0
453 51 1 7.369078179477173 5.343166830081023 36.72542735218565 0 0 0
454 51 1 7.526100211889922 4.357995070521976 37.84964578331673 0 0 0
455 51 1 8.890174959794226 4.374631348837333 38.39183754121904 0 0 0
456 51 1 9.06916983474732 3.1642740109077994 39.20054511801065 0 0 0
457 51 1 10.466812272520329 3.0856524880565783 39.95040464063797 0 0 0
458 51 1 10.796413431396267 1.9469274774626482 40.94179237890313 0 0 0
459 51 1 12.010110335175478 1.923504179004355 41.75366355205782 0 0 0
460 51 1 12.063463650787709 2.993794637428313 42.78720632432808 0 0 0
461 51 1 13.331609101975355 2.7242072700014432 43.62551849341246 0 0 0
3924 28 1 13.913795750167822 13.008420305149889 34.32905742581214 0 0 0
4157 27 1 16.861860690462454 15.3836301880942 38.14626629124169 0 0 0
9641 64 1 5.3600360823846875 24.23804998751797 39.88856155287423 0 0 0
7635 51 1 0.16774117292609358 4.08976242230468 34.11300212794395 1 0 0
9023 59 1 1.7547421203327007 18.28552161784439 40.77543233423057 0 0 0
4158 27 1 18.26236515491817 15.207893730504304 38.66933348590787 0 0 0
2879 20 1 18.541183176089213 3.153026708730979 39.726220262075934 0 0 0
1978 41 1 17.949495602861635 19.604166920802076 44.11958642800586 0 0 0
671 51 1 3.3372269253636957 6.231185684173498 31.540797546494368 0 0 0
672 51 1 3.491126067373131 7.458149801549394 32.310019611412706 0 0 0
1647 45 1 6.201586757884054 17.38645559979612 30.164017829215556 0 0 1
674 55 1 6.390278261956469 9.836821629537429 30.62352592982083 0 0 0
675 55 1 7.701898360098767 9.753273945568894 31.34644344280285 0 0 0
676 55 1 7.720038536962615 8.77313496272428 32.53002949123002 0 0 0
677 55 1 9.124293683936035 8.83056649985948 33.145316669928256 0 0 0
678 55 1 9.1968187320218 7.838843130990017 34.30263828480764 0 0 0
679 55 1 10.543333375361243 7.648233659384394 34.84721075594093 0 0 0
680 55 1 10.517423979110108 6.650863084605001 36.038700258876716 0 0 0
681 55 1 11.944490159033794 6.5951158442049405 36.71636889237644 0 0 0
682 55 1 12.215854166813028 5.41033959997675 37.601216081468905 0 0 0
683 55 1 13.469765322463891 5.497226014824813 38.407502419097 0 0 0
217 2 1 1.7868903640945868 0.9408587454849071 29.812401090795372 0 0 1
3262 48 1 14.140208743845955 9.79509192144032 33.17905246314369 0 0 0
1568 10 1 1.477465804103537 14.94675690167998 30.78433023524058 0 0 0
4150 4 1 17.177550628803726 15.55745660827727 31.741625184910223 0 0 0
3269 48 1 18.207627876263228 7.3422736661259 39.7935839747728 0 0 0
673 55 1 6.067971102142611 8.639423118567576 29.790581486673396 0 0 0
9022 59 1 1.1350347904749436 19.608820246545136 40.268763928554705 0 0 0
897 5 1 3.0252655386300664 11.78921597557019 32.33692993248983 0 0 0
898 5 1 4.434160669522086 12.05012638849021 32.78853935673036 0 0 0
899 5 1 4.567515841674927 11.046350343623004 33.93574038121063 0 0 0
900 5 1 5.924773625084071 11.115807660574422 34.67970503905621 0 0 0
901 5 1 6.0810480310578034 9.863861063032763 35.465068639084656 0 0 0
902 5 1 7.289032623704881 9.895280373646196 36.32894570795192 0 0 0
903 5 1 7.562651960058758 8.83392709919924 37.349798645782585 0 0 0
904 5 1 8.796914690149313 9.048034450851254 38.21939929059534 0 0 0
905 5 1 9.035845292946723 7.856378428665072 39.04635379318934 0 0 0
906 5 1 10.25830481888019 7.740630977277553 39.95735104105928 0 0 0
907 5 1 10.378258416325817 6.553117235284871 40.92116463149457 0 0 0
908 5 1 11.659289560358781 6.4847496674308305 41.73805946332345 0 0 0
909 5 1 11.624498658219855 7.293428099156255 42.995676481603624 0 0 0
4380 28 1 17.420492558398333 19.408342155818087 33.322399176712686 0 0 0
8242 55 1 0.6749297398870568 10.809462519328568 40.6971441406253 1 0 0
7639 51 1 3.14619421900339 4.325694763107925 37.58256943285109 0 0 0
443 52 1 6.59063864953414 4.234936183559655 30.041135134970286 0 0 1
6820 46 1 1.8652135648078239 19.29529123668353 46.25026217307919 0 0 0
465 51 1 16.32053893069631 5.2920770254149305 46.762225905085714 0 0 0
4691 20 1 16.823914130011495 24.31230456256801 31.550079591437378 0 0 0
464 51 1 14.947234686903155 4.883824699910803 46.363890174617055 0 0 0
1119 5 1 1.425818386525745 10.787989013212217 30.676703067008837 0 0 0
1120 5 1 2.8669768123180193 10.769639660771338 31.17500526314159 0 0 0
1121 19 1 7.839632603537567 13.19644160479023 32.64141758154761 0 0 0
1122 19 1 9.256534586021672 13.056263445089892 33.281184025351536 0 0 0
1123 19 1 9.32132958008129 11.958310729450085 34.35327087020932 0 0 0
1124 19 1 10.533498809603838 11.95383860788245 35.1405058185133 0 0 0
1125 19 1 10.793442847013887 10.780353919552947 36.068639932148145 0 0 0
1126 19 1 12.152891350357024 10.83170115937282 36.85266018140845 0 0 0
1127 19 1 12.17263134835396 9.672479368988522 37.83818661256407 0 0 0
1128 19 1 13.494126281277543 9.546287622361579 38.515328142342575 0 0 0
1129 19 1 13.556539628780289 8.519376337745006 39.661994721725215 0 0 0
1130 19 1 14.793310636311169 8.469100472884197 40.409304339416295 0 0 0
1131 19 1 14.931406952166194 9.546675453071513 41.464668125630396 0 0 0
1132 19 1 16.354776792032062 10.040236483430654 41.83386406273772 0 0 0
2871 19 1 15.730797420312934 2.888699999324114 30.016951253190587 0 0 1
8644 57 1 4.884307981851543 11.565530785318636 45.574636034096905 0 0 0
9635 64 1 0.8481284548271375 0.6951252648836639 34.48733141455848 0 1 0
8244 55 1 2.115518689339807 9.641550805180934 42.40053138538096 0 0 0
1343 19 1 6.5857312497489024 14.228920273296076 30.83000622566135 0 0 0
1344 19 1 7.817880846648293 14.394919485641383 31.681605980776457 0 0 0
1345 10 1 2.912361008556371 15.09292662632739 31.419883038183496 0 0 0
1346 10 1 3.297160573322186 16.1843995689017 32.410423460462724 0 0 0
1347 10 1 4.519748005937162 16.120883644159 33.173199601383274 0 0 0
1348 10 1 4.528306675465308 15.007465244696782 34.22231833672635 0 0 0
1349 10 1 5.973872380009715 14.813317985028181 34.66040316235513 0 0 0
1350 10 1 6.121434481207574 14.53130479376617 36.10991059580376 0 0 0
1351 10 1 7.523007400092714 14.247281758449242 36.615431311190676 0 0 0
1352 10 1 7.536076315547898 13.335940975964524 37.88580362979702 0 0 0
1353 10 1 8.993415932000838 13.098737668782386 38.21622715956835 0 0 0
1354 10 1 9.073658542326111 12.33123578064003 39.547577332473296 0 0 0
1355 10 1 10.427646510848374 11.793917725385704 39.90222694965918 0 0 0
1356 10 1 10.42109304037957 10.949877803909805 41.118266412924925 0 0 0
1357 10 1 11.696850818749944 10.748882698352256 41.931987373807935 0 0 0
1361 10 1 14.347630521478326 12.904000445443847 45.764537840542275 0 0 0
3704 28 1 16.55933880346851 10.629155594553358 37.739005024224575 0 0 0
2055 14 1 14.850615605535092 21.94078288872933 45.33080003638331 0 0 0
9636 64 1 1.4524931885395473 0.8216588530838178 35.92115439471577 0 1 0
7199 40 1 1.4163890122014626 24.2375135486626 46.119456360821694 1 0 0
2793 18 1 17.31104138863196 2.2244674517822856 31.837076652673378 0 0 0
2263 14 1 3.032161450151547 24.12714464709964 31.479911576817088 0 0 0
7419 63 1 2.2698411996719567 0.7974228545460547 42.52180399931967 0 0 0
8021 54 1 2.336098210453926 8.825760401774005 36.10945457286162 0 0 0
13 3 1 16.177176374883068 0.9791100347714902 46.63791628556862 0 0 0
1648 21 1 10.821618906253903 16.38841259356091 34.90581560605066 0 0 0
1649 21 1 10.93092511391705 15.406690274462267 36.08426082852198 0 0 0
1650 21 1 12.288401777524278 15.028327628940403 36.66379248262807 0 0 0
1651 21 1 12.125251636029043 14.41072290358129 38.01623554452773 0 0 0
1652 21 1 13.518089795418462 13.94040370774015 38.43337634456217 0 0 0
1653 21 1 13.654790725492116 13.099342588298747 39.632598561373136 0 0 0
1654 21 1 15.031880904538045 12.993472111198788 40.24529191086826 0 0 0
1655 21 1 15.055803773617733 13.951329536688624 41.44384807490458 0 0 0
1656 21 1 16.503738450209752 14.099286642167257 41.91816843668059 0 0 0
4149 39 1 16.02568380859101 16.387821386811353 31.40655397531911 0 0 1
9347 63 1 3.8053954117666295 21.850310885291616 44.28823442128995 0 0 0
3479 44 1 17.614642687084597 10.905386377630048 33.003651916966305 0 0 0
2499 49 1 15.62433294838433 25.445754896320047 36.196863542904005 0 -1 0
9030 59 1 6.811485969502538 14.762374528595183 46.94321428639799 0 0 0
3927 4 1 17.386214015603475 15.366716759125092 33.22036202553723 0 0 0
9637 64 1 2.1714733339499355 26.310114886468657 36.40373122880231 0 0 0
1725 21 1 9.256066091509888 17.444977024871516 33.222708009427656 0 0 0
1726 21 1 9.442947008287497 16.452284752232384 34.34892402646948 0 0 0
1727 11 1 8.00476490213158 17.494398278073113 37.39213428831294 0 0 0
1728 11 1 8.85570372490094 17.73923851692928 38.66179490814585 0 0 0
1729 11 1 9.44215973990859 16.422342649816628 39.125609905633816 0 0 0
1730 11 1 10.30673866360916 16.70515973595618 40.26963804119189 0 0 0
1731 11 1 10.50910698240671 15.370378517102147 40.99139666132362 0 0 0
1732 11 1 11.619637923501523 15.293143120914726 41.978171908892335 0 0 0
1733 11 1 11.818349826156833 16.472501394988356 42.932237538728444 0 0 0
1734 11 1 13.186184890589937 16.407054098243112 43.63746971506962 0 0 0
1735 11 1 13.198834126326858 17.56235513578638 44.57903786712134 0 0 0
9649 64 1 11.288539140239214 24.167215107146486 46.43363895882048 0 0 0
9028 59 1 4.890502230081899 16.216136315671573 45.910324782012694 0 0 0
2280 15 1 16.76274371771454 24.12006593466693 43.15179529294603 0 0 0
2490 15 1 6.661129048465955 0.7698922826032898 31.25014827123556 0 1 0
9349 63 1 5.317420409797997 20.554649206728875 45.86026745937974 0 0 0
7650 51 1 11.039908285746106 1.3888906035455209 46.84050047935724 0 0 0
9644 64 1 7.546859783794035 23.085268590137783 42.91030184828172 0 0 0
8247 55 1 4.591315069451174 7.185560042770543 44.335554210523 0 0 0
1800 11 1 3.021624327778918 20.431650404944687 32.6851702343206 0 0 0
1801 11 1 4.299414788323135 20.638279116022 33.39251093201647 0 0 0
1802 11 1 4.598097896836327 19.373922862549367 34.1826795492038 0 0 0
1803 11 1 5.960822373009153 19.613575472864756 34.79216434284929 0 0 0
1804 11 1 6.255032688097539 18.45953114073112 35.70021478063134 0 0 0
1805 11 1 7.328547383175159 18.75964120089381 36.80702713606289 0 0 0
1964 41 1 8.203681121251268 22.894973033185774 31.65339679288156 0 0 0
1965 41 1 8.174464838560363 22.081777681927527 32.9170043785177 0 0 0
1966 41 1 9.479292283187185 21.93191709546844 33.67060942702739 0 0 0
1967 41 1 9.571562901545335 20.82767412486304 34.63567093267579 0 0 0
1968 41 1 10.72912691034836 21.044614411076182 35.52775420659921 0 0 0
1969 41 1 10.93503132490479 19.767204699265307 36.31480381605725 0 0 0
1970 41 1 12.149702621808807 19.823222990983968 37.25754473609337 0 0 0
1971 41 1 12.355611295998198 18.58562550685326 38.112303818154764 0 0 0
1972 41 1 13.672250421145739 18.359091039979916 38.78907342144875 0 0 0
1973 41 1 13.805534791669135 17.19439954292134 39.76876579798414 0 0 0
1974 41 1 15.232726044897987 17.106844579907776 40.36001984151322 0 0 0
4541 29 1 16.947808387398418 19.730261368129923 37.87090931313398 0 0 0
3920 24 1 10.904816555400439 15.369865220653908 31.0278630883373 0 0 1
2281 15 1 18.078839417882325 24.224332043765212 43.84792581011109 0 0 0
1723 21 1 7.7051274567441 18.793197489817583 31.861258437606587 0 0 0
8019 54 1 1.0171646387388373 9.847202093570507 34.350046138461025 1 0 0
8020 54 1 1.269386090982216 9.850339327113009 35.816381739887234 1 0 0
3705 28 1 17.921017773114865 10.5568117455519 38.402225604729175 0 0 0
2043 14 1 6.005343719451789 24.127960970788035 34.83344083045656 0 0 0
2044 14 1 5.914784703834342 23.205015269090193 36.003042935182144 0 0 0
2045 14 1 7.3037322280130335 23.067354924278145 36.65803651797405 0 0 0
2046 14 1 7.4761899015059985 22.239020525487437 37.953240404563985 0 0 0
2047 14 1 8.908837981605862 21.909447357203472 38.244631830018726 0 0 0
2048 14 1 9.04530936456979 21.286785134974394 39.66349697488301 0 0 0
2049 14 1 10.394042017717052 20.90083718740113 40.1834592916545 0 0 0
2050 14 1 10.44604292726407 19.92076946315293 41.33952478092006 0 0 0
2051 14 1 11.74129899450774 20.015177233788467 42.03330264705695 0 0 0
2052 14 1 11.730505193998658 20.805825353300172 43.37681366857922 0 0 0
2053 14 1 13.193801922394094 21.088708840589813 43.77242473626677 0 0 0
8637 57 1 0.46079563435687365 15.28672945367684 38.90395149001168 0 0 0
3093 33 1 11.277205709025921 6.45227920860662 31.443059271107806 0 0 1
2042 41 1 6.815301578768352 22.99026984696071 31.02865796515412 0 0 0
8243 55 1 1.7129311795658273 9.718014063157733 40.92231153937939 1 0 0
9640 64 1 4.485861178105032 25.452083172414536 39.44343143469629 0 0 0
3267 48 1 16.94821171392734 6.422484903052514 37.894632488523605 0 0 0
1134 19 1 17.910596811074363 10.87879028229623 43.759441470102836 0 0 0
8801 58 1 2.3629794730916194 17.521370047832228 35.85423587030706 0 0 0
218 3 1 1.6758863278939058 1.8649495839777666 31.07966201793251 0 0 0
2264 14 1 3.2007920166327826 25.27957242810366 32.518415712416946 0 0 0
2265 14 1 4.582876045152389 25.240341851252442 33.100191082719974 0 0 0
2266 14 1 4.699758466987188 24.07190039326103 34.109711050200666 0 0 0
2267 15 1 7.951424044423072 0.8101402066993825 32.02186854758394 0 1 0
2268 15 1 8.104827483976782 26.12092436009541 32.732708610888494 0 0 0
2269 15 1 9.543340715442532 25.930115896893252 33.18402520734117 0 0 0
2270 15 1 9.580827664709684 25.32087778074352 34.59393290292383 0 0 0
2271 15 1 10.839483377054641 25.394032643087296 35.26906045236747 0 0 0
2272 15 1 10.818034716961902 24.440748343569492 36.51485454915991 0 0 0
2273 15 1 12.113194250844787 24.261415061002992 37.0773417157296 0 0 0
2274 15 1 12.214583384069414 23.077891706965662 38.13388640636731 0 0 0
2275 15 1 13.664666731219302 23.072203288768563 38.600270540511836 0 0 0
2276 15 1 13.897849122879533 21.881736877722737 39.55600527730233 0 0 0
2277 15 1 15.252498370676978 21.80948541767732 40.25059880984454 0 0 0
9638 64 1 3.127483462890018 26.55271524052106 37.607155735905486 0 0 0
2872 19 1 15.939024491482439 2.8113816136275034 31.46629705581103 0 0 1
670 51 1 1.9397635455073956 6.1293606835507255 30.945777753494475 0 0 0
7421 63 1 3.5937226496897132 26.26085333987242 44.2895850687283 0 -1 0
3264 48 1 15.486705493264948 8.61752063847191 34.987733704247525 0 0 0
8646 57 1 6.156889077226015 10.274812125852815 47.31692057706513 0 0 0
9648 64 1 9.974087950533967 23.566553201725256 45.97625714516721 0 0 0
8640 57 1 2.0883323383675654 13.867339682647035 42.14770813661372 0 0 0
9270 61 1 10.023977615983062 18.507042962846473 46.21369627584984 0 0 0
235 29 1 18.034650727369215 2.20146826302647 44.21107639186391 0 0 0
2494 49 1 12.395442660505575 2.179637214323891 31.86169690247628 0 0 0
2495 49 1 12.447924995988574 1.07565218473829 32.86214955564636 0 0 0
2496 49 1 13.909917694840884 0.965260501914132 33.41203056362598 0 0 0
2497 49 1 14.173002208157657 26.399900292405917 34.34054395795787 0 -1 0
3700 36 1 15.732445858918787 12.234663601160404 30.00616405926153 0 0 1
444 29 1 6.792041173242955 5.3906776722181196 31.10564500712817 0 0 0
7867 52 1 3.269407933013494 3.945642207339138 42.84257755331592 0 0 0
3263 48 1 14.237854913437962 8.675169722553838 34.21278657146484 0 0 0
1738 11 1 16.216902289275676 18.268657679755957 47.009216466995 0 0 0
9265 61 1 6.631399530857279 18.780527649278916 41.456881160899236 0 0 0
2498 49 1 15.589746203695794 26.258911641129284 34.894308226163574 0 -1 0
2873 20 1 14.11301663217896 4.249990321310919 34.97364956179771 0 0 0
2874 20 1 15.543578296656221 4.08645044315501 35.434741456793546 0 0 0
2875 20 1 15.868902415644191 2.8708480425142726 36.22066052685687 0 0 0
2876 20 1 17.134251975292475 2.876794775841375 36.99321886192535 0 0 0
4156 27 1 16.745336219672208 16.156313100177524 36.83196149188029 0 0 0
910 5 1 13.07062380352413 7.553982788187547 43.379062832178185 0 0 0
8023 54 1 3.7447032402123894 7.8964931831227 37.82075350205416 0 0 0
2493 49 1 11.02527426038298 2.3761790217468035 31.254127520298134 0 0 0
3095 20 1 12.626411089289544 5.3952158674071775 33.3086910634092 0 0 0
3096 20 1 13.978685024690273 4.9807021587593026 33.66227253924365 0 0 0
8427 58 1 10.28988847395861 9.221081762851751 46.03022921137901 0 0 0
1135 19 1 17.94515417755876 11.654112793697434 45.067280200545966 0 0 0
1360 10 1 13.726067858592916 13.030802075861507 44.391393321329154 0 0 0
7641 51 1 4.367039673317096 3.218732661309197 39.416480693407415 0 0 0
2501 49 1 16.967238881144507 24.23481150300786 37.80636535111634 0 -1 0
8022 54 1 2.639456674134247 8.85333353539246 37.61901146914299 0 0 0
4159 27 1 18.488908251029486 16.296913055110313 39.762114459772874 0 0 0
7417 63 1 0.9295753347552799 1.8896449056273728 40.7201016740827 1 0 0
3259 48 1 11.054579577600453 10.988752632568646 31.04921688801274 0 0 0
3260 48 1 12.422482957670702 10.779925004736286 31.61848484080834 0 0 0
3261 48 1 12.669539247169157 9.618960118010778 32.60301949478031 0 0 0
911 5 1 13.077550514836059 8.096774605770088 44.783105791847824 0 0 0
1737 11 1 14.789244424129793 18.21112782819984 46.646610520759275 0 0 0
1659 21 1 18.019626966151073 15.746875528026084 44.82559897474434 0 0 0
236 29 1 18.4259818366104 3.5580322708800183 44.82239180419542 0 0 0
7866 52 1 2.3950931209225477 5.131564561147301 42.58093533788326 0 0 0
9645 64 1 8.072651776832137 21.720374765691584 43.3253589847914 0 0 0
3928 4 1 18.424875530614813 14.294379662456782 33.49078946276512 0 0 0
3703 28 1 16.523908620478974 11.81416140838217 36.753435712417165 0 0 0
7864 52 1 0.8959107262121024 6.254205295425028 40.95926976795401 0 0 0
1736 11 1 14.468016306922541 17.366817957058636 45.378037383292295 0 0 0
8645 57 1 5.846270213254911 10.473118915150211 45.899350957643435 0 0 0
690 55 1 18.021911870552994 7.667630889205677 44.6011338486217 0 0 0
3099 21 1 16.018464814216543 7.484909062264927 31.408949961438843 0 0 0
8415 58 1 1.242815219546718 14.056569806368525 35.809576155385756 0 0 0
7416 63 1 0.46987934721340663 1.9819472274037542 39.29929389591692 1 0 0
3925 28 1 15.197856910127957 13.065250371491288 35.105049276236464 0 0 0
3926 28 1 15.211524070191395 11.840209544215929 35.942534619797804 0 0 0
9346 63 1 3.5738796681163283 21.892353137593474 42.80945119837933 0 0 0
4155 27 1 15.389788250114371 16.6980974299225 36.64407366312754 0 0 0
8642 57 1 3.5411735926596504 12.690209114672347 43.840252407635624 0 0 0
686 55 1 14.954657558415494 5.284597734517334 41.40607630852907 0 0 0
4151 27 1 12.601313214050615 19.006793050433142 32.90309011825274 0 0 0
4152 27 1 13.972609280472414 18.43717951927349 33.36345623379395 0 0 0
4153 27 1 13.916316133955652 17.85791547626694 34.767302236303124 0 0 0
4154 27 1 15.27590916022983 17.49845686921821 35.343458774668946 0 0 0
4533 29 1 11.461537851881403 24.002260373520357 30.68607534859168 0 0 0
1722 21 1 6.563085841949743 18.668026376067186 30.90925524219748 0 0 0
7640 51 1 3.8195951188132193 3.0531896932130356 38.06867952508995 0 0 0
4377 28 1 15.703947257968354 20.89224620531284 29.998592170076193 0 0 0
2262 14 1 1.6516077292015272 24.017110195721248 30.877291935229664 0 0 0
2056 14 1 15.064000438057628 22.980216115131242 46.370812607761096 0 0 0
3480 44 1 18.56014579455199 9.81122363811826 33.341703334020124 0 0 0
913 5 1 14.560912295313864 9.430795529802065 46.34511874418817 0 0 0
5993 34 1 1.3129005856181974 10.61500868419152 46.04091643034421 0 0 0
8641 57 1 3.1966639051362358 12.86813885704117 42.33714831753566 0 0 0
8638 57 1 0.7582283900328495 15.073654259473432 40.37582674688349 0 0 0
4534 29 1 12.561920680830198 24.184554315566825 31.650651514461828 0 0 0
4535 29 1 12.627979917669704 22.980611884649186 32.49447868443644 0 0 0
4536 29 1 13.472008596274089 23.101334357858452 33.70158383069444 0 0 0
4537 29 1 14.033539175785599 21.830309057342642 34.4020755865895 0 0 0
4538 29 1 15.170784513299106 22.036078352077883 35.4538410588762 0 0 0
4539 29 1 15.41848054911181 20.88893297443412 36.42123490594662 0 0 0
9269 61 1 9.46813611267336 18.509911717819023 44.804727155475845 0 0 0
9267 61 1 8.045221691186331 17.506173654509965 43.12400346167766 0 0 0
5541 34 1 1.2419761901851027 6.00873104872611 46.12935010638883 1 0 0
3265 48 1 15.46307378096365 7.6293501686321985 36.18212243657876 0 0 0
3921 24 1 12.346784515406458 15.370191427224908 31.678873166507902 0 0 1
7868 52 1 3.6661629714763486 3.88108717139542 44.26028577990726 0 0 0
2054 14 1 13.443301900272695 21.956234201715912 44.96209397461681 0 0 0
2877 20 1 17.467978586664415 1.6202472515320272 37.84484946099569 0 0 0
3094 20 1 12.66297518389551 6.206453002128653 31.996363292355312 0 0 0
7636 51 1 0.9143268717785061 5.3385334410941905 34.505032316728936 1 0 0
8416 58 1 2.4597029626365616 13.129308339934436 36.1368207750032 0 0 0
1133 19 1 16.48349357929332 10.798739932277138 43.14630354362731 0 0 0
9264 61 1 5.580984053893255 19.812201735797736 41.08417111213289 0 0 0
9029 59 1 5.865998497537612 15.128019804002903 45.7781140090074 0 0 0
8250 55 1 6.641915121487452 6.191573358301522 47.41123209685135 0 0 0
684 55 1 13.688048001500611 4.234783564119446 39.274671990434356 0 0 0
8810 58 1 8.887702360431177 12.825296903498673 44.41210691723371 0 0 0
9263 61 1 5.328795964468315 19.916216749935437 39.6088741876965 0 0 0
9262 61 1 4.208709780171622 21.032451190442178 39.20929704625398 0 0 0
9271 61 1 11.05491135084272 19.571392110970088 46.498323883710924 0 0 0
1799 11 1 2.928836116067808 19.50293333303008 31.43482215016065 0 0 0
7418 63 1 1.9262473593843041 0.8278648667118981 41.07330611775687 1 0 0
3098 21 1 15.773076339828439 7.612308179856967 29.942820055365033 0 0 0
9261 61 1 3.984241142178912 21.01092972517816 37.75469995978164 0 0 0
4374 27 1 12.519966303118123 19.688286669943086 31.51940961243771 0 0 0
8812 58 1 10.312034862614887 14.008109775685611 46.18106403680285 0 0 0
5091 35 1 1.398283236170999 1.7799450489867557 45.98586186541216 1 0 0
9260 61 1 2.7789315813191626 21.922516469101993 37.50524562087075 0 0 0
7638 51 1 2.415578435383825 4.105722136307565 36.20107902967778 1 0 0
912 5 1 14.538607508833818 8.463090762220803 45.23251837630595 0 0 0
1358 10 1 12.229765891446455 11.99388802805304 42.594487053951354 0 0 0
219 3 1 3.1295026781995645 2.1048521129672775 31.569154643072665 0 0 0
7649 51 1 9.886566869473027 0.4216292346690231 46.58537571525811 0 0 0
9258 61 1 1.3034882721379946 22.873200913037344 35.84703508827295 0 0 0
9027 59 1 4.253021345245194 16.018450112409845 44.50497181849045 0 0 0
685 55 1 14.914267396773388 4.287210682030474 40.14671542626926 0 0 0
9639 64 1 3.858965977889105 25.255653967635286 38.07392566970432 0 0 0
2278 15 1 15.480803260013214 23.049129176629016 41.24336110209008 0 0 0
4769 20 1 16.216220445132457 25.594383765653962 31.11224285232599 0 0 0
3266 48 1 16.845387152476018 7.538673670970186 36.86835330766875 0 0 0
2282 15 1 18.164134880858207 25.35204613873618 44.74846829547574 0 0 0
7423 63 1 5.179480339470148 25.218475616872166 45.9557339589589 0 -1 0
1884 1 1 1.597141916671443 19.55437950330098 30.69203881189006 0 0 1
8639 57 1 1.866199706919259 14.108273616549244 40.718816783561614 0 0 0
8643 57 1 4.735242946306738 11.779728993540227 44.097586320963536 0 0 0
8803 58 1 3.9304720419397032 16.549656002038574 37.60497924964873 0 0 0
8806 58 1 5.86406651733781 15.558156955600108 41.07629486129879 0 0 0
1975 41 1 15.240167706015944 18.07090535866184 41.54395116562972 0 0 0
7871 52 1 6.361408706856717 1.91451987498661 46.253864677761655 0 0 0
3701 36 1 16.29297306702981 12.14807809398169 31.42967708532884 0 0 1
8024 54 1 4.007975507672689 7.524953442847326 39.25856513920253 0 0 0
7865 52 1 1.9563387037242752 5.162999494186085 41.08158558137393 0 0 0
8245 55 1 3.171297899663223 8.58910061773975 42.56543075583207 0 0 0
7642 51 1 5.25513619506225 2.078498457122761 39.81832792688834 0 0 0
7643 51 1 5.887567309444479 2.2096589004127662 41.193935323325135 0 0 0
7644 51 1 6.880727560359929 1.0949700831779925 41.43658567559107 0 0 0
7645 51 1 7.369278700267737 1.066012832194243 42.87452991775359 0 0 0
7646 51 1 7.924061761498018 26.382921969845047 43.2420405138294 0 -1 0
7647 51 1 8.408922987411016 26.356739817310313 44.70210457201432 0 -1 0
7648 51 1 9.680516335972886 0.3461111348954232 45.03296486958303 0 0 0
9343 63 1 0.9969179970118147 23.883777452690484 40.879484110356984 0 0 0
3101 21 1 17.400580079658614 6.409191019442668 33.24581114097309 0 0 0
8808 58 1 7.331847592539056 14.133135989359102 42.761705304137394 0 0 0
8032 54 1 10.348628661510899 4.711417508719986 46.30881060142701 0 0 0
3922 24 1 12.50502664876059 14.298099149191943 32.71860611513074 0 0 1
1977 41 1 16.519288048117268 19.34442393007338 43.450278534622754 0 0 0
8802 58 1 2.798194861009639 17.443522096006063 37.32668512257388 0 0 0
2279 15 1 16.634295271181795 22.866541838223746 42.255331759269254 0 0 0
4540 29 1 16.80629117780535 20.973436050238817 36.96254558095456 0 0 0
6818 46 1 0.4977783929341845 20.458536670761884 44.432792197231315 1 0 0
8809 58 1 8.199749298779818 12.942517288509817 43.05098349783452 0 0 0
688 55 1 16.487121058162057 6.245005342747297 43.1706309344082 0 0 0
11 3 1 14.722453937490103 26.30094925568854 45.20096736824574 0 -1 0
8805 58 1 5.3998339077538935 15.47720679012652 39.646180437476104 0 0 0
1657 21 1 16.635253394878664 14.665334510529803 43.20384008178909 0 0 0
9647 64 1 9.665693193823524 23.121268545253614 44.55989551657411 0 0 0
7869 52 1 4.880377497917873 2.9314880559112058 44.583045746051496 0 0 0
7870 52 1 5.221360329653136 2.9504682139764165 46.03623886590471 0 0 0
8807 58 1 6.768949201399338 14.426207770541387 41.35437926009931 0 0 0
9266 61 1 6.9575972755103725 18.555941898371312 42.8652724189109 0 0 0
9259 61 1 2.4100965738025857 21.905701752190424 36.022276269034364 0 0 0
9025 59 1 2.9874147158259614 17.1579268624377 42.72719680268781 0 0 0
8246 55 1 3.5816267770618797 8.317075159601893 44.05676249730714 0 0 0
8248 55 1 5.056320420573204 7.085993555226072 45.79350389998763 0 0 0
3923 24 1 13.890844962925842 14.184197593888573 33.416210434715246 0 0 1
1883 1 1 1.4597698038143216 18.343313464890663 29.82734294871861 0 0 1
8025 54 1 5.095496967334838 6.463299132624588 39.63397258456936 0 0 0
8026 54 1 5.348983809829763 6.180393073898925 41.07713318697536 0 0 0
8027 54 1 6.76464609440521 5.459046861938975 41.309510691813415 0 0 0
8028 54 1 7.078104779634472 5.094422771798393 42.84211956178883 0 0 0
8029 54 1 8.30760148467017 4.271876413917779 42.99594957211619 0 0 0