LAMMPS data file via write_data, version 23 Jun 2022, timestep = 11112117

8487 atoms
2 atom types
8471 bonds
3 bond types
8455 angles
3 angle types
8439 dihedrals
3 dihedral types

0 36.89775039 xlo xhi
0 26.67072 ylo yhi
45.265686954346066 191.48591744570072 zlo zhi
0 4.60040682972214 0 xy xz yz

Masses

1 14
2 15

Pair Coeffs # lj/cut/omp

1 0.0914 3.95
2 0.1947 3.75

Bond Coeffs # harmonic/omp

1 449.5 1.53
2 449.5 1.53
3 449.5 1.53

Angle Coeffs # harmonic/omp

1 62.0967 114
2 62.0967 114
3 62.0967 114

Dihedral Coeffs # opls/omp

1 1.411 -0.271 3.145 0
2 1.411 -0.271 3.145 0
3 1.411 -0.271 3.145 0

Atoms # molecular

1743 15 1 10.960115181169131 20.886451301083667 48.695733710377745 1 0 1
2081 18 1 12.78381899560233 25.56555578845262 51.7835126837346 1 0 1
2562 25 1 17.802088349134742 3.7551769973089963 53.429442774311624 0 0 0
2315 20 1 12.14239456956313 0.631284597426383 47.022661618555084 0 0 1
21 58 1 10.476431168199694 26.04669126097591 55.03934868283753 0 -1 0
2345 23 1 18.23376261948664 3.382289605650963 47.24086167543455 0 0 0
6734 9 1 5.1401455929639095 8.297858150769269 54.95802118431801 0 0 0
1261 52 1 10.001214062932975 14.495622993401089 53.02743757715162 1 0 1
3217 45 1 13.393798655226258 10.2553817532296 47.545372010808244 0 0 1
1265 52 1 12.074961860762476 13.455775574745427 56.45320653487154 1 0 1
7069 58 1 6.399957312257637 12.458494186826812 57.18571431254222 0 0 0
8473 30 1 0.8958909065314342 22.280885469447927 49.445678261290276 1 0 1
757 5 1 11.882522208028956 7.122726950806821 51.32009769434715 0 0 0
708 4 1 10.146859276765223 7.159252325341622 49.3239706123714 0 0 1
1501 11 1 16.375845596003263 14.717398698579133 57.0536003378373 0 0 1
6706 53 1 1.9268775984541893 4.968155260626054 57.605616845567525 1 0 1
3216 45 1 13.64590337896292 11.031922944294434 46.257520118802404 0 0 1
2554 25 1 12.672144069599854 5.91094348839349 47.18693037846756 0 0 0
3457 27 1 14.563068412346027 15.264396741093547 47.44753446292232 0 0 0
236 36 1 15.614976909282323 0.8444772715253923 56.047577565717006 0 0 0
7600 21 1 0.7430091639492065 17.329354327689778 55.64015303469398 1 0 0
2316 20 1 13.677232736878594 0.5623613323834473 47.62183178374641 0 0 1
1255 52 1 5.444727239850099 12.613141989036155 49.60304853470975 1 0 1
17 58 1 7.26528355093203 0.48329149205028704 52.70443409306827 0 0 0
231 36 1 13.361283909730322 2.9271869936207624 51.93402373872058 0 0 0
1499 11 1 14.637657838524625 15.750566053220373 56.27601059098997 0 0 1
2083 18 1 13.891918806373182 24.374640422575336 53.517446252007566 1 0 1
2775 29 1 17.496496314114907 8.411607460989739 46.366607600604745 0 0 0
452 37 1 4.809814257175865 3.9219602944795215 49.67107879718005 0 0 0
4441 37 1 17.94204494241769 23.978826017676738 46.97322060294965 0 0 0
1489 11 1 9.586686512493234 16.106400134722037 47.655477053439306 1 0 1
225 36 1 8.489317747030002 2.8940236568073883 47.7170452428078 0 0 0
7066 58 1 5.775066036867719 11.55807423491446 53.33015017073506 0 0 0
2082 18 1 12.588780517212925 24.463664793946148 52.861179563635375 1 0 1
4432 35 1 17.235423337413504 22.46495213682955 54.019644668956516 0 0 1
6460 1 1 0.31393441898418806 1.0722842744059464 49.74563002501064 0 0 0
1813 17 1 5.172119117811498 21.347843259197283 49.11322667262421 0 0 0
3456 27 1 13.919581072771214 14.149280141792433 46.66287249831232 0 0 0
2317 20 1 14.262501342952586 1.8917307193713921 48.14295413700305 0 0 1
4423 35 1 12.248224388794956 23.28206688313158 46.48323196397487 0 0 1
449 37 1 2.9975474408708203 2.9393840390644796 47.80165930073287 0 0 0
453 37 1 6.251141281573357 4.079928526541635 50.278405139846775 0 0 0
3220 24 1 16.311347199781725 9.546728387669305 49.82665807512842 0 0 0
1260 52 1 8.972219664420125 13.446654487580867 52.81494782000704 1 0 1
4424 35 1 13.630600435242608 22.697930619290485 46.41851155804406 0 0 1
8481 30 1 5.8746336100483045 25.069290966961997 55.90931693421871 1 0 1
1251 52 1 2.5555611604239585 11.703935145524268 46.341433139912354 1 0 1
4426 35 1 13.830971048999782 23.605436074315442 48.725297679287884 0 0 1
13 58 1 4.5889852434417335 0.10146097903766246 49.95595132459443 0 0 0
1500 11 1 15.48504291786736 15.83270020228612 57.58203989929907 0 0 1
7064 58 1 3.377637650605398 10.473390900582425 53.294041399653096 0 0 0
7058 58 1 0.3557615467975438 10.43028847265409 47.800946903755985 0 0 0
1809 17 1 1.604500904717646 21.132922510028582 46.37453534205957 0 0 0
3000 24 1 18.399302140779756 9.412967131414055 53.50418023381086 0 0 0
3221 24 1 16.42292208350693 8.405568923043427 50.82719825366864 0 0 0
2321 20 1 16.140277064819365 0.7890082466662405 51.53872828223383 0 0 1
1263 52 1 9.977555789844821 14.105699233580223 55.47984309177326 1 0 1
1822 17 1 9.91074821306556 21.323181369422183 55.41866324671726 0 0 0
1497 11 1 14.691808234701657 17.246607130663406 54.2173070671068 0 0 1
3218 45 1 14.593391816614494 10.540178320908705 48.39628383249215 0 0 1
1488 11 1 8.967811784678261 15.691949303392288 46.35294212278996 1 0 1
792 6 1 11.757149007649028 9.072211498344943 55.48567675537839 0 0 0
6952 17 1 2.7724912631553154 10.009752256981777 56.51393238121363 0 0 0
2557 25 1 14.216839932394919 5.491652596594168 49.852857337281435 0 0 0
3461 27 1 17.040023408924025 12.742663465510008 50.72620167930274 0 0 0
7601 21 1 1.8439124178251929 17.39307555574577 56.612693336231104 1 0 0
6704 53 1 1.8892190430183995 4.3533947085685805 55.424323804387804 1 0 1
6955 17 1 5.372106944210016 9.852572488156751 59.0843783266659 0 0 0
7831 62 1 1.7604886776910345 19.072076275679517 52.03198524215078 0 0 0
2177 19 1 17.97389836441069 12.298984830689493 47.28609260214224 -1 0 0
6730 9 1 1.9969513638333984 6.764089712414405 51.36501701193759 0 0 0
1048 8 1 11.877233157141594 11.465673420282265 51.33968438748817 0 0 1
8483 30 1 8.096828346795759 24.33144853468401 56.55680099005884 1 0 1
451 37 1 4.615974466262352 4.5942111371959315 48.32906101059206 0 0 0
2560 25 1 17.29338328300456 4.1154304554693795 51.07573127057015 0 0 0
713 5 1 16.256552755012308 5.757186445615723 57.59150416809288 0 0 0
1252 52 1 3.73731895112497 11.937446352339402 47.22238193797291 1 0 1
1814 17 1 5.95766712870537 22.603643066911005 48.749103093111 0 0 0
1520 14 1 8.340605809400014 19.01047691508935 50.990986804893474 0 0 0
830 7 1 7.253182804067715 9.43496029719882 49.77324512267778 1 0 1
3214 45 1 11.70186815956986 9.547242417285416 46.01342200954685 0 0 1
6473 1 1 9.511846112512952 2.0798664931985327 59.07818034167248 0 0 0
455 37 1 7.222881326888634 5.476600210714461 51.80390372860468 0 0 0
1049 8 1 13.264132955477697 11.976666474825977 51.027716769313905 0 0 1
2346 23 1 17.916921599189664 1.9721839472044473 47.69084939632483 0 0 0
462 37 1 11.55025715829761 4.2623977370637744 56.7708060125221 0 0 0
825 7 1 3.161209194972427 7.321298914998059 47.32300937426351 1 0 1
794 6 1 11.565707752965574 7.751531961173075 57.571407683189584 0 0 0
2555 25 1 14.189687236100099 5.715062307564049 47.163517919937796 0 0 0
12 58 1 5.278732588208683 26.256628970398893 48.752376075536304 0 -1 0
2322 20 1 17.261640946967503 0.7419546888438768 52.60223088933587 0 0 1
6372 54 1 2.173372517980463 1.2070538157716673 57.7092260225537 0 0 0
7829 62 1 1.3612427155436047 18.00887613201363 50.133148132392385 0 0 0
7061 58 1 0.7714676037605823 10.286399033077606 50.30857686523463 0 0 0
826 7 1 3.536752130333499 8.600326187840315 48.12442998968261 1 0 1
707 4 1 9.404940969500158 7.5108398946441355 48.02215505591036 0 0 1
6375 54 1 5.11834576389672 26.352438514011666 59.59144777517306 0 -1 0
2077 18 1 9.62078168916557 24.572005170455974 48.15188742040105 1 0 1
6463 1 1 2.0470212361693463 2.1616773195390095 51.24777100266668 0 0 0
228 36 1 10.09653649003853 3.9975885902345643 50.31786701094088 0 0 0
7837 62 1 5.891960992452799 21.03707483294602 56.16751348323736 0 0 0
4118 32 1 14.943448412287445 19.088294515596193 48.493897045191055 0 0 0
7562 10 1 8.020352870317428 15.690270769139413 58.1160790652293 0 0 0
2078 18 1 9.832497092729108 25.695129427900817 49.08528716366023 1 0 1
1515 14 1 4.510416898966098 16.38676860060852 48.702327036768 0 0 0
3496 63 1 0.5712212663871188 21.13916141679151 55.20850467612719 0 0 0
2319 20 1 15.104417618567695 26.58798557422441 49.494937600654254 0 -1 1
3676 29 1 17.44222754554481 16.535205962877512 46.78730842748848 0 0 0
7497 57 1 0.2777691166874312 14.503896134788953 48.591307707104235 1 0 1
3464 27 1 18.1463049876854 14.386096814824464 54.1678384123786 0 0 0
7557 10 1 4.568960982812538 15.935573718975606 52.9183378560586 1 0 0
715 5 1 18.161230981788798 4.333546537194937 58.25570693087124 0 0 0
1258 52 1 8.422015353090995 14.691778429036795 50.81328321240806 1 0 1
2323 20 1 16.97561069671996 25.88489782337482 52.73130465288045 0 -1 1
4425 35 1 14.070415411489693 22.451535700057317 47.85450439742237 0 0 1
1521 14 1 8.95320027240708 18.13601470118082 52.0514762095995 0 0 0
6705 53 1 1.1223242003811822 4.056959098918355 56.69879438099171 1 0 1
1753 15 1 16.865378834778983 19.97825873050667 57.51470728656711 1 0 1
8 58 1 2.8388737731610107 25.978324074035886 45.51635132264166 0 -1 0
1053 8 1 15.090148414440376 11.346254525810176 54.9589225902526 0 0 1
2636 63 1 0.5838123769263169 21.994926570553144 54.03780910370252 0 0 0
1254 52 1 5.339591020876638 13.34134273996933 48.30163191557336 1 0 1
1747 15 1 12.699488445461387 19.70009755839097 52.762109337387855 1 0 1
2561 25 1 16.82039763210448 4.232374901916641 52.45915121300422 0 0 0
6954 17 1 4.326302211931752 10.587717026294596 58.2706476987602 0 0 0
2344 23 1 16.917148515595425 3.849973318726848 46.47723096669624 0 0 0
11 58 1 4.589986395553405 25.913582031835084 47.48714357848995 0 -1 0
4119 33 1 16.95066965709124 20.953447791488813 46.472430415659225 0 0 0
4429 35 1 16.415220440299162 22.916576006071296 50.56056752853221 0 0 1
832 7 1 8.368119370727262 10.00777078795784 52.041594759875004 0 0 1
2776 29 1 17.432194702654705 7.4923593728988225 47.54333577756901 0 0 0
834 7 1 9.524208786736954 10.110944296881971 54.31083662418382 0 0 1
829 7 1 6.080555475503196 9.14043964356017 50.616138340146385 1 0 1
7602 21 1 1.8556953785613626 18.77811066314021 57.3036904304448 1 0 0
3463 27 1 17.29369839169605 14.245615590173948 52.90099521506048 0 0 0
1047 8 1 11.019289432994828 11.610314606765876 50.111716219893964 0 0 1
7499 57 1 0.9680557475452166 13.35472320550259 50.75730558121457 1 0 1
3219 45 1 15.057192919638881 9.319821673276492 48.944080558200085 0 0 1
6467 1 1 5.579344805664893 3.232028021216982 54.206227337167 0 0 0
1745 15 1 11.748148332841648 21.360357294810814 51.093736787886925 1 0 1
1253 52 1 4.1440279352842895 13.378247737493108 47.55975030782518 1 0 1
1045 8 1 10.352256458261877 12.74016798876332 48.14123688423347 0 0 1
229 36 1 11.040256149112523 4.1037967858343 51.47304040623803 0 0 0
4117 32 1 14.011544448614279 19.334456800114495 47.305529860363755 0 0 0
796 6 1 13.631366093297208 8.237723772809874 59.0719817640232 0 0 0
1250 52 1 2.374110766376851 13.086433252533617 45.6544829388034 1 0 1
238 36 1 17.121551911796356 0.7449127590399858 57.77131149807137 0 0 0
1513 14 1 3.0226524485342243 17.42056799639162 46.78764182162275 0 0 0
456 37 1 8.420451070669689 6.433782551430127 51.826171014159215 0 0 0
7072 58 1 9.636315535321701 10.755475608318768 58.175389773954414 0 0 0
6736 9 1 7.297107744154525 7.76558184055778 55.773185991543556 0 0 0
6709 53 1 4.183458993535707 5.281156145629085 58.768817285713986 1 0 1
3258 19 1 17.877461967131882 12.281536147045228 45.81432688522271 -1 0 0
1815 17 1 6.751111385767085 23.09801221724435 49.85483575778044 0 0 0
4122 33 1 18.530769821093568 20.942742879843077 48.596190498555636 0 0 0
7558 10 1 4.910295615733355 15.329005691183351 54.237197134949916 1 0 0
7555 10 1 2.6641183911011717 14.429072473204574 52.237971947724965 1 0 0
7836 62 1 6.489540955889646 21.008656996585223 54.73904785870685 0 0 0
1819 17 1 9.384520199374386 23.94445378948118 52.80386244372467 0 0 0
2558 25 1 15.22535421211509 5.417475377201903 50.963192602170935 0 0 0
1264 52 1 10.741044451489605 13.983323364206287 56.79738251916166 1 0 1
237 36 1 16.38946907597093 1.7252265569878946 56.9140937409534 0 0 0
16 58 1 7.736553722353347 1.2962204288570591 51.45956456978316 0 0 0
4427 35 1 14.263891109390038 23.23504032782866 50.078781894022114 0 0 1
1525 14 1 10.533150151430798 17.759396249033696 55.869570516851766 0 0 0
6731 9 1 3.0643333142319102 6.380518735030723 52.39852809430433 0 0 0
6728 9 1 0.8597148684283883 5.694087729689472 49.65328385148529 0 0 0
1502 12 1 17.2640400066173 14.055592763879588 57.913036299333584 0 0 0
6783 16 1 3.044520552351863 13.690103032790363 56.622057987379534 0 0 0
8480 30 1 4.734012122322935 25.3475208151575 54.83156878166482 1 0 1
705 4 1 7.808616920568239 6.6407041073837405 46.495991472489116 0 0 1
1493 11 1 12.500524249731628 16.409261173468025 51.13544775852118 0 0 1
8486 30 1 9.079494835402016 24.807994408118947 59.17428153514952 1 0 1
3001 24 1 18.37603010119065 7.897495322804733 53.73220163615305 0 0 0
1821 17 1 10.467025166679216 22.60037670575563 54.672957226456475 0 0 0
6373 54 1 3.01597332432211 0.8426176105320513 58.83734104545762 0 0 0
6466 1 1 4.392511166049212 2.2637032382648337 54.06500850591497 0 0 0
2559 25 1 16.03046685106087 4.221595928862637 50.20442196419773 0 0 0
1259 52 1 7.868051545975427 14.243921107196146 52.18957741439142 1 0 1
7830 62 1 1.851928155328993 19.364208125356775 50.51286302822788 0 0 0
454 37 1 6.291939129347238 5.590875141175636 50.5660740909587 0 0 0
2080 18 1 11.595842974447814 26.218006260723854 50.830272309378735 1 0 1
6371 54 1 2.578957140697268 0.4991742481076581 56.425857814387925 0 0 0
6950 17 1 0.9895396934289618 8.781404672402838 55.22316124549053 0 0 0
233 36 1 13.056401986316427 1.6007737479720308 53.52668655452326 0 0 0
795 6 1 12.846346156717633 8.499568005288287 57.793759724650386 0 0 0
6732 9 1 4.336757574264014 7.0578593888692565 52.84509150104848 0 0 0
7917 63 1 2.9510601500491274 23.432728983892904 56.920730338717306 0 0 0
4267 63 1 2.993930890400969 22.212225820885955 57.87266102717993 0 0 0
2076 18 1 8.492147497575328 25.064319254064177 47.33507501621901 1 0 1
8366 63 1 2.020243940978209 23.195413199474928 55.84237373157376 0 0 0
5849 16 1 2.009772420265561 13.438576183519576 55.518233344718155 0 0 0
6739 9 1 7.403519135502096 5.7750897953286815 58.07325915004737 0 0 0
1823 17 1 10.772427060279217 21.359757241369525 56.683928344150665 0 0 0
2999 24 1 17.792551161695734 9.605021405769836 52.1144207227645 0 0 0
1257 52 1 7.390989336952714 14.094101816930973 49.86862577665505 1 0 1
6737 9 1 6.51341232743147 7.945572320770328 57.00148602100928 0 0 0
2085 18 1 14.730064068359914 24.26334664706319 56.054457952169344 1 0 1
6369 54 1 1.0290982506594597 26.0598578921673 54.81447490795906 0 -1 0
6729 9 1 1.2652087302816402 5.601912803984055 51.04464858967498 0 0 0
7563 10 1 7.975325112758915 16.799741022862033 59.07345281208126 0 0 0
7604 21 1 4.475530841088959 18.35301697177683 57.818982894327725 1 0 0
4439 37 1 16.12023152135639 25.538607365283553 46.192808753652045 0 0 0
6374 54 1 3.996295562303523 26.352460387184035 58.54374686412116 0 -1 0
230 36 1 11.998067542005565 2.8995580008715347 51.351191109079664 0 0 0
1748 15 1 13.290752961960933 20.781296301065662 53.39211220461456 1 0 1
710 5 1 14.708945933326746 6.366856128951893 54.257808372513715 0 0 0
711 5 1 15.831900742496208 6.027433631765426 55.148873626268674 0 0 0
1496 11 1 13.592775763271968 16.401962774197738 53.56925946023262 0 0 1
450 37 1 3.1156146736679156 4.431100258191839 47.93782898032072 0 0 0
3460 27 1 16.23066455429738 13.962281234366863 50.20266945304794 0 0 0
714 5 1 17.512163241743664 5.1024369747521074 57.169806180276616 0 0 0
1752 15 1 15.805089126810081 20.37581653218653 56.57621405473364 1 0 1
3462 27 1 17.776042720651407 13.020105028046355 51.93435099877165 0 0 0
712 5 1 15.274236502659184 6.2699746177951114 56.49306771516466 0 0 0
2343 23 1 16.395312430933707 2.6252752970475526 45.79765759210842 0 0 0
7833 62 1 3.1541781207606854 19.88344709327727 53.84953274740402 0 0 0
7067 58 1 6.33400618931941 11.409303191452103 54.72822461344935 0 0 0
234 36 1 14.297028519933399 0.9182922771170561 54.05982243033112 0 0 0
6738 9 1 7.1429119763453 7.214233267861676 58.176251522030036 0 0 0
3675 29 1 18.192862022454207 16.125177251905814 45.62178705872599 0 0 0
6894 63 1 3.836822831848685 22.703283875776187 59.017227055587504 0 0 0
1746 15 1 11.590708269739524 20.085517608640505 51.7754746342961 1 0 1
2553 25 1 11.93488537324925 4.662396330223247 46.839591950893094 0 0 0
2320 20 1 16.102420109889948 26.213265791161263 50.61096416731052 0 -1 1
6740 9 1 8.933998981575511 5.467148216606025 58.24861924041131 0 0 0
6470 1 1 6.938644490290225 1.374996932267082 56.63390988934273 0 0 0
6703 53 1 0.9086659570512914 4.589517316464334 54.20634681627975 1 0 1
2086 18 1 14.680532858756767 23.49645408371976 57.29414741132118 1 0 1
227 36 1 10.118814071774915 2.4881070324230605 49.75612308104439 0 0 0
8474 30 1 1.7136565521190668 23.159665445493825 50.34202653044336 1 0 1
1512 14 1 1.6546945616112385 17.288847663505823 46.358189639631625 0 0 0
7062 58 1 1.602308532786125 9.990334249112166 51.50573196361083 0 0 0
1267 52 1 13.637025855967757 13.636954574561685 58.65658589367037 1 0 1
791 6 1 10.89517658739785 10.267156381788094 54.89856900551596 0 0 0
3897 32 1 16.332704334190556 17.654016823808988 50.62391670544127 0 0 0
1519 14 1 7.033281566365478 18.51521748485792 51.39141392849767 0 0 0
1491 11 1 11.319549096352349 17.105934690576728 49.06271874934543 1 0 1
7832 62 1 3.1093793573246162 19.012416272531077 52.57286982381807 0 0 0
793 6 1 10.900450669808196 8.401058675293946 56.470582165901654 0 0 0
2998 29 1 16.190709119207902 8.952383333984336 45.89454165211395 0 0 0
7838 62 1 6.867811664521597 21.038470478778596 57.3132686710499 0 0 0
6464 1 1 3.019197474549575 2.8388219138039834 52.091052737702874 0 0 0
1514 14 1 3.2148482370006035 16.297612698244507 47.850089531932824 0 0 0
1817 17 1 7.615499735430912 22.636178550406242 52.074667663363336 0 0 0
8482 30 1 7.1200812507386155 24.251494588240558 55.4281874690688 1 0 1
1810 17 1 2.877175466895454 21.90972633879198 45.98359238270701 0 0 0
2314 20 1 12.034033991476761 1.3518786970168233 45.72264638582303 0 0 1
1490 11 1 10.832032834896527 16.816143277989376 47.67673963018403 1 0 1
464 37 1 12.30226969874902 3.561268879050326 58.74576389576444 0 0 0
20 58 1 10.120488091884951 0.8061207808104774 54.87156998169338 0 0 0
2075 18 1 8.004059923341023 23.869274430177796 46.42596708408497 1 0 1
6869 16 1 2.2862508686875764 13.869607336677792 57.90642664719066 0 0 0
460 37 1 10.506914481551538 5.173699794822934 54.63582824320635 0 0 0
1527 14 1 11.947553181234962 16.817971520368854 57.565832398511745 0 0 0
15 58 1 7.118326191110611 0.4002489762635391 50.335707410840826 0 0 0
4116 32 1 13.899511807731491 18.359863122816574 46.140441974458135 0 0 0
1812 17 1 4.336419975966601 20.90598261560439 47.85866275991398 0 0 0
709 4 1 11.418177815139641 7.867669114247087 49.06831640865777 0 0 1
1487 11 1 7.6911268066291685 15.068341858674948 46.5532922169967 1 0 1
1816 17 1 6.516853426314708 22.190420459666832 51.04446046204487 0 0 0
6708 53 1 4.09596467700312 5.90133270792333 57.316218400239876 1 0 1
1818 17 1 8.320852946013426 23.945533714550955 51.80575626434669 0 0 0
1742 15 1 9.835800303190888 19.964921604646467 48.29631953786156 1 0 1
1256 52 1 6.822942287781673 12.763540224828825 50.19206197927515 1 0 1
457 37 1 8.873688344951274 6.180595529714398 53.28748351906995 0 0 0
1503 12 1 17.048042572414676 13.914820651638646 59.4674329056388 0 0 0
232 36 1 13.394534542518683 3.066677994050913 53.318279193560144 0 0 0
466 37 1 14.607009119526117 3.367319692574318 59.70127896020911 0 0 0
4120 33 1 17.950575377477502 19.922177040533377 46.506971842859905 0 0 0
447 36 1 6.4221912816383675 2.0255179237366745 46.86802132186749 0 0 0
1055 9 1 15.92351343600725 9.995599537359602 56.22901238552584 0 0 0
759 5 1 13.784997974901794 7.958362251224642 52.513756189712744 0 0 0
833 7 1 9.549190049129972 9.616129955409006 52.83752502579178 0 0 1
1751 15 1 14.551800950635206 19.505771312467555 56.75550175581651 1 0 1
1524 14 1 10.11390061685039 17.599857430982528 54.53621488475386 0 0 0
1518 14 1 6.023327748599997 18.094317765638383 50.26200236301016 0 0 0
1820 17 1 9.818316216852551 22.60702709902063 53.288778005421364 0 0 0
1046 8 1 11.478140516595904 12.707928077197632 49.153807744230804 0 0 1
5512 16 1 4.392624920870633 14.543563866095523 58.87619731117294 0 0 0
461 37 1 11.718308181523664 4.76271154417312 55.36728118474078 0 0 0
1741 15 1 8.509160932064681 20.576330434029636 47.80280182635688 1 0 1
7835 62 1 5.400675951967432 20.28398505055702 53.883021297402706 0 0 0
760 5 1 14.42340084098129 7.830299972491521 53.843722593363985 0 0 0
6465 1 1 3.985603785171517 1.9617839609084984 52.770862658257904 0 0 0
704 4 1 6.530799679131179 5.817984152410249 46.29041874647649 0 0 1
235 36 1 15.057404905456737 1.8196708418635044 55.02592569267052 0 0 0
7839 62 1 7.638504198615399 19.76704939995113 57.40187127681193 0 0 0
1013 16 1 2.969816634942177 15.122953551918355 58.49974440940456 0 0 0
14 58 1 5.834296551928453 0.0544362055375798 50.99365133955671 0 0 0
1523 14 1 8.692043194436392 18.203801152986202 54.56064859697887 0 0 0
8485 30 1 8.047736110024122 23.725816773511234 59.00062245808477 1 0 1
1262 52 1 10.929026555211014 14.106578993521397 54.19033382128982 1 0 1
19 58 1 9.575591383977153 1.0532965244528818 53.4947032979202 0 0 0
7834 62 1 4.411689046433774 19.66198279390686 54.72294227560556 0 0 0
7310 16 1 0.31334800007788227 12.643969127923201 54.14210575357346 0 0 0
6735 9 1 6.422784384726995 7.4789580201042405 54.64457920804304 0 0 0
1522 14 1 8.002146667430253 17.89961797220659 53.22991399543529 0 0 0
1057 9 1 16.252367257224847 10.46668022264825 58.44572806499945 0 0 0
1492 11 1 11.906195981512429 15.880973709691961 49.81201315725085 0 0 1
4433 28 1 18.438099828795814 22.515705925990467 54.91613554876174 0 0 0
1040 8 1 6.038675960736704 9.369867150105224 45.73627389396021 1 0 1
7561 10 1 7.622091540645525 16.09234340068161 56.62110466998193 0 0 0
8484 30 1 7.287425036258188 24.510120505137092 57.88519866384572 1 0 1
226 36 1 9.878994118801826 2.454760321087624 48.19507619506904 0 0 0
7599 21 1 1.1916636329182917 16.405257925496592 54.444382861408876 1 0 0
7063 58 1 2.6305383655747847 10.918418876569023 52.03199097435726 0 0 0
448 36 1 7.812625457584031 1.711437790636145 47.14893645272822 0 0 0
10 58 1 3.216522421674482 25.347991527452034 47.943534270185296 0 -1 0
1494 11 1 13.204650936544096 15.183800284872738 51.5683039683723 0 0 1
3222 24 1 17.624099611113543 8.197562256267148 51.59298218433164 0 0 0
7840 62 1 8.554661335608914 19.89901427898814 58.611233124780284 0 0 0
1528 14 1 11.247727492080168 18.095254489098043 58.2138422939475 0 0 0
1517 14 1 6.589190304550356 17.7924433364365 48.869166183727344 0 0 0
7500 57 1 1.9467936196110065 14.443481909581443 50.81734157456722 1 0 1
3899 32 1 17.149791923474535 18.991202850643685 52.60562442786887 0 0 0
2347 23 1 18.558700813497428 1.6848080266000562 49.04265532962049 0 0 0
6462 1 1 1.536053366553779 0.9579103637590045 51.83005837190561 0 0 0
7603 21 1 3.0368921948041128 18.877658399620874 58.18831648918999 1 0 0
6469 1 1 6.116975454448868 2.563337259426271 56.5274753464239 0 0 0
3901 32 1 18.507100318909007 17.64718835045806 54.2733871992811 0 0 0
1744 15 1 10.569092805178045 21.30210235296918 50.19331087188126 1 0 1
459 37 1 9.36173923022089 4.255980705166598 54.788673709087824 0 0 0
8476 30 1 3.5167509783016744 23.18621183958908 51.97522629973034 1 0 1
2556 25 1 14.784378188439431 5.2660688189333165 48.4626541227527 0 0 0
7070 58 1 7.734043398983069 12.194254597052028 57.77578251485067 0 0 0
7065 58 1 4.386346503492257 11.525734903169909 53.75886531171409 0 0 0
758 5 1 12.435122888682905 7.268706605896462 52.688902292624505 0 0 0
2087 18 1 16.013746518679305 23.454988118519115 58.21526774264128 1 0 1
8479 30 1 4.8780762088928675 24.872687726774576 53.42575082842271 1 0 1
1486 11 1 7.019301628307567 14.11779342347497 45.5579612259673 1 0 1
18 58 1 8.159802063734318 0.8596610027450085 53.89887354562727 0 0 0
1740 15 1 8.193888210653439 20.662262733323924 46.244366567585 1 0 1
6468 1 1 6.222733001892145 3.738017810931783 55.5046699044358 0 0 0
4430 35 1 16.253846645090878 22.5294698377724 52.0390535481323 0 0 1
3677 29 1 18.349114413001665 16.67802355620821 47.97998755164298 0 0 0
3895 32 1 14.25242184038816 18.7760413207458 49.766429796336084 0 0 0
3215 45 1 12.746616116103604 10.384341296872536 45.33163945572782 0 0 1
4431 35 1 17.591839117133368 22.322850408039297 52.669391317962784 0 0 1
1749 15 1 14.363790188358948 20.67912424821656 54.51104084498883 1 0 1
1051 8 1 13.55763947343591 12.286949420709453 53.38318224906635 0 0 1
22 58 1 10.87578588700584 25.82413396457823 56.45498585625907 0 -1 0
1824 17 1 11.245637301206665 22.754750552072146 57.151650209873786 0 0 0
1516 14 1 5.542200020825339 17.355061362070494 48.03994408220525 0 0 0
1052 8 1 14.419519998812353 12.565962817530757 54.612169119176365 0 0 1
3455 27 1 12.645103133434393 14.548874259279437 45.87958210039872 0 0 0
1056 9 1 16.65541508561401 9.47723190211318 57.389914872780324 0 0 0
835 9 1 17.699427786336695 8.836945148768036 59.09256332457455 0 0 0
7560 10 1 6.185505641992983 15.66876793907168 56.258583090504125 0 0 0
1044 8 1 9.972179745045622 11.373393305682914 47.87929402536256 0 0 1
1050 8 1 14.250863572382618 11.83209399748667 52.0781348802986 0 0 1
672 37 1 2.323577770925258 2.693345088178837 46.50233159266282 0 0 0
2318 20 1 15.134712926735086 1.4665059474768387 49.24337251415653 0 0 1
1811 17 1 3.8819089201489776 22.059435635882856 47.17539590443492 0 0 0
6733 9 1 4.073135256503644 7.511296628620862 54.30398664742425 0 0 0
6741 9 1 9.522072956911265 6.220559616332712 59.479293179938644 0 0 0
1739 15 1 7.067491304583375 19.532209136169474 46.052494358307584 1 0 1
1043 8 1 8.601955913487073 11.369287697694284 47.302100607663384 1 0 1
716 5 1 18.18432332635881 5.032480971203255 59.60096696289011 0 0 0
6370 54 1 1.4305078125965784 0.6227318219303212 55.51874055716586 0 0 0
7556 10 1 4.0094920984556985 14.988341509682257 51.813538288100084 1 0 0
1529 14 1 11.383743676330596 17.425964384832774 59.61891062460754 0 0 0
458 37 1 8.53367375103938 4.687353378987782 53.51109417686689 0 0 0
23 58 1 11.727432538719592 0.36433128290181144 56.4839946591368 0 0 0
827 7 1 4.856446085577478 8.680543811827578 48.68559222310294 1 0 1
8475 30 1 2.477358709699823 22.297320500255232 51.30393059323623 1 0 1
756 5 1 12.299850556371297 8.115531447783672 50.17790312333179 0 0 0
1750 15 1 13.677985856584707 19.863337952519675 55.608383557914365 1 0 1
8478 30 1 3.7327501929458515 25.48191340622648 52.75742526886941 1 0 1
2088 18 1 17.255177453681 23.846458842572535 57.75902948370747 0 0 1
1825 17 1 11.584921247181331 22.65901253375389 58.641155037616905 0 0 0
6953 17 1 3.2287976982806286 9.637475592052722 57.98942058231201 0 0 0
2552 25 1 10.820039509176615 4.790646480918537 45.936801092492956 0 0 0
3458 27 1 14.953241461001918 14.972285956706235 48.86313216722299 0 0 0
7068 58 1 6.495422650759413 12.622922914475891 55.71034196927348 0 0 0
4428 35 1 15.313600677219807 22.135814747493647 49.955604803817906 0 0 1
1498 11 1 15.435606496787406 16.49876630671461 55.24303879165099 0 0 1
706 4 1 8.176716127094275 6.627474337209238 47.98858640897188 0 0 1
1826 17 1 11.904256019034147 21.166030040171552 59.11982739462733 0 0 0
6707 53 1 2.612016263789809 6.089269346939306 56.89518033277652 1 0 1
24 58 1 12.251523971234981 0.5267109557681452 57.878302312899756 0 0 0
2079 18 1 10.916599614515937 25.27798725377031 49.917074934616934 1 0 1
831 7 1 8.361815651238443 9.327653403115013 50.609463043661684 0 0 1
6471 1 1 7.527093401157136 1.1010132841888434 58.0079528699748 0 0 0
8477 30 1 3.2200898011177803 24.579176866439525 51.692188528553714 1 0 1
1041 8 1 7.224720089068974 10.232635291468148 45.596098985785154 1 0 1
1266 52 1 12.793131288040675 12.77428863436622 57.68868976696446 1 0 1
7605 21 1 5.15938181505875 18.12398216834614 58.93152385526644 1 0 0
4440 37 1 17.24264376304413 25.351103421750498 47.12911767474085 0 0 0
2324 34 1 17.881429793122578 25.613486111963745 53.88788055438195 0 -1 0
1526 14 1 11.918070571445316 17.177819265410864 56.141741339998596 0 0 0
3459 27 1 15.444937472891114 13.720711583463242 48.91963966403356 0 0 0
4114 31 1 11.748690532272867 19.5041716587894 45.47551792258607 0 0 1
3898 32 1 17.078397533921745 17.70221987173271 52.015690876579306 0 0 0
2084 18 1 13.564744037747268 24.12032626142872 55.024406672295 1 0 1
1054 9 1 15.26708896373604 11.302365431642457 56.48327821906136 0 0 0
1754 15 1 17.06604033836538 18.529874628832292 57.71237434832649 1 0 1
1495 11 1 14.236356831428893 15.502224358030421 52.52091909823319 0 0 1
3900 32 1 17.708946636723667 18.89441423652572 54.059641196395845 0 0 0
7071 58 1 8.502435688974343 10.97866824974789 57.378018687958566 0 0 0
7559 10 1 5.621296846329083 16.32357195931693 55.06070581678175 0 0 0
828 7 1 4.769381887449895 9.3822599464177 50.01402905439457 1 0 1
3896 32 1 15.332046677759722 18.776201851053052 50.61740782010856 0 0 0
3575 63 1 1.0468904535017836 22.102530165439532 56.34324689279323 0 0 0
1042 8 1 8.408771787956535 10.107354598137523 46.55107693701414 1 0 1
1755 15 1 18.07613501697341 18.16090650439436 58.74862567799468 1 0 1
9 58 1 2.2888850750301986 25.258346660414922 46.77421321841686 0 -1 0
6461 1 1 0.9499764907125372 0.08082813173580254 50.61814782420725 0 0 0
824 7 1 2.0902548224864357 7.592644071719994 46.224735295424914 1 0 1
3257 19 1 16.54918855308897 12.40345193385546 45.271752695200554 -1 0 0
239 36 1 18.00134145213118 1.2247765685128549 58.937877750234044 0 0 0
6951 17 1 1.299874667596152 9.436830231549806 56.53655630703311 0 0 0
25 58 1 12.111037642372919 26.03575816971349 58.745726824042144 0 -1 0
463 37 1 12.957933873543816 4.116728876302738 57.45264697310438 0 0 0