LAMMPS data file via write_data, version 23 Jun 2022, timestep = 11112117

8487 atoms
2 atom types
8471 bonds
3 bond types
8455 angles
3 angle types
8439 dihedrals
3 dihedral types

0 36.89775039 xlo xhi
0 26.67072 ylo yhi
20.88476839774117 215.86683600223012 zlo zhi
0 6.134560398842443 0 xy xz yz

Masses

1 14
2 15

Pair Coeffs # lj/cut/omp

1 0.0914 3.95
2 0.1947 3.75

Bond Coeffs # harmonic/omp

1 449.5 1.53
2 449.5 1.53
3 449.5 1.53

Angle Coeffs # harmonic/omp

1 62.0967 114
2 62.0967 114
3 62.0967 114

Dihedral Coeffs # opls/omp

1 1.411 -0.271 3.145 0
2 1.411 -0.271 3.145 0
3 1.411 -0.271 3.145 0

Atoms # molecular

1 2 1 8.824592799880312 0.4034290476880409 28.281728737555472 0 0 0
2 2 1 9.47569583776744 26.119163818286584 29.281249679546832 0 -1 0
870 12 1 18.8764980345383 10.950356705691352 37.23783424577725 0 0 0
7 2 1 12.90132585212826 0.4892318156863006 34.56877822050477 0 0 0
2128 21 1 16.425688102046813 0.07983670355675347 25.862695032948036 0 0 0
1657 15 1 15.385401147508235 19.816443016811114 30.73352161673261 0 0 0
440 3 1 15.569522298919976 1.514292323053895 31.347608456634923 0 0 1
439 3 1 14.674974609402874 2.2086960014834496 30.319012196341852 0 0 1
589 9 1 10.189230701082243 6.146460145005495 23.503157091068193 0 0 1
3548 63 1 15.544023086387769 12.808321310939668 26.119313438240564 0 0 0
1892 16 1 7.822664064107216 22.228047868105765 26.91207600340935 0 0 0
1289 7 1 5.86780273405672 13.559596128877478 25.60879016144336 1 0 1
7865 16 1 1.662683599744919 17.813144017060427 30.966582564745828 0 0 0
6997 58 1 0.20932164605906792 7.33521148273515 22.46516834094122 1 0 0
7347 3 1 1.2087746439339269 10.678740354588356 24.30188433574091 0 0 0
1594 13 1 11.443770608946089 17.258976534340004 32.76191180103176 0 0 0
864 12 1 14.49382048572195 11.005263540961044 31.1736713134011 0 0 0
549 5 1 11.775998542084551 4.271950283291743 32.28322290581496 1 0 1
1296 12 1 11.450311271206187 13.139904584652461 32.580495555918034 0 0 0
1655 15 1 14.083881068977762 19.83942092342338 28.54031036923087 0 0 0
1583 14 1 3.5406837970218987 18.16186218782038 20.942450366867078 1 0 1
223 2 1 7.213724784074082 0.27982772644342363 26.275965846917583 0 0 0
224 2 1 8.30777533937162 26.25599559594724 27.076226376953812 0 -1 0
4078 6 1 12.674650991669221 22.13086795859061 21.253597217479683 0 0 0
7869 16 1 4.639626753308742 17.885753581678017 35.15710849622615 0 0 0
434 3 1 11.087998897667003 1.3084730152325792 25.090135152908143 0 0 1
437 3 1 13.069644299776318 2.147969020204722 28.234677100991348 0 0 1
2129 21 1 16.75387167194323 26.217180026978696 27.265970504000567 0 -1 0
7836 60 1 3.0791988196237723 15.724592440842315 27.694024047768483 0 0 0
552 5 1 13.490386278861163 4.705298649587104 35.746506571731814 1 0 1
4080 6 1 14.50334118767256 22.016106320797054 23.04623095437667 0 0 0
7001 58 1 2.924463349191924 6.778824235023715 26.611680717285363 0 0 0
1295 7 1 10.06934983904403 13.554387988085471 31.98653462918103 0 0 1
6568 52 1 5.8641321939547 2.577918372318872 31.084492331318536 0 0 0
1889 51 1 5.0803690224751765 22.4202446318431 24.192594725883144 0 0 1
7838 60 1 4.640020102850372 15.847694872309832 29.711913063916022 0 0 0
6783 32 1 7.184155816984555 5.084142351458804 39.20870001313956 0 0 0
547 5 1 10.352878601797617 4.385937343571868 30.090670529729366 1 0 1
2123 21 1 12.417209877063899 26.372651332020098 20.968595047571657 0 -1 0
1292 7 1 8.697944998139455 13.298724512441387 28.280597883415588 0 0 1
6779 32 1 3.997298846168414 5.177524799306339 35.13551711948272 1 0 0
1346 13 1 12.424318183845353 14.964543115174894 27.864377222039288 0 0 0
866 12 1 16.069831904218 11.156184738605187 33.05107827107029 0 0 0
543 5 1 7.252560562609648 4.228119649831255 26.064850126205535 1 0 1
2883 24 1 16.123417144710203 8.435463917690246 25.88648828948104 0 0 0
8460 50 1 6.013772545928212 25.022709998157445 30.910854295306855 0 0 0
1678 16 1 14.90959448060594 22.093956535645514 37.25825022768032 0 0 0
1286 7 1 4.279554991151997 13.239662049310276 22.151689325305572 1 0 1
10 2 1 15.20593336173851 0.09786319146538479 37.410397448883245 0 0 0
1591 14 1 9.472574414055888 18.07263710253651 29.5245782302605 0 0 1
1585 14 1 4.668023585876984 18.317345227204125 23.33796566518855 1 0 1
442 3 1 16.688332565352496 1.6803360214294534 33.56760421297688 0 0 1
1294 7 1 9.89618912632694 13.150332527013054 30.521004841737415 0 0 1
1586 14 1 5.049810540873215 17.531998187568004 24.57787275213612 1 0 1
1297 12 1 11.637845485309452 13.448697667000149 34.05849931115246 0 0 0
6329 50 1 5.306285931438193 0.007398735465732145 35.990995919153924 1 0 0
4086 6 1 18.491137247025822 21.93073304618782 29.676958594296373 0 0 0
222 2 1 6.7286245901091055 26.165735689468217 25.000305294729987 0 -1 0
3848 18 1 14.289779553683138 17.28556037138569 23.1769463456415 0 0 0
3847 18 1 13.794948720908572 17.959914877218065 21.974475692010465 0 0 0
1907 18 1 10.085235833478839 24.047688378127564 24.55036437932976 0 0 0
1890 51 1 6.313647841544607 22.218537868117785 25.054676686253742 0 0 1
8458 50 1 4.382078412979136 24.974883905105123 28.91433515594086 0 0 0
2571 19 1 14.867062021578064 3.8185259542534244 24.680194921376444 0 0 0
4490 11 1 4.424197691535879 9.007198847893552 34.68305231331307 0 0 0
1654 15 1 12.771091839511666 19.62992655152172 27.869451096463607 0 0 0
3627 18 1 16.410924965719243 17.945119784170487 26.338398777275682 0 0 0
6999 58 1 1.548021666910388 6.949389088092716 24.528846945069056 1 0 0
436 3 1 12.400563474274014 1.2411597500928495 27.149219162294347 0 0 1
653 4 1 13.029236189717302 8.612649783683924 34.78175862284994 0 0 0
444 22 1 18.169163176103797 1.87717400198101 35.653844685563904 0 0 0
1888 51 1 5.096994526106202 21.825632863361704 22.762401594435847 0 0 1
2127 21 1 15.198589628392254 26.16492742520072 25.146920927802665 0 -1 0
2880 24 1 13.84272445322895 9.131989310829951 22.863196268275228 0 0 0
548 5 1 10.486887985306023 4.682622201447874 31.629301352059194 1 0 1
1340 13 1 7.961126065447778 15.843757684998483 21.724437608923196 0 0 0
6245 49 1 0.9010942610476915 24.913192331022632 36.376704785309364 1 0 0
591 9 1 11.57976910672727 6.353173123350503 25.496434678027377 0 0 1
858 12 1 10.337940803308731 11.752619759099172 24.67794719260397 0 0 0
628 6 1 14.77304652488431 6.682561407718084 30.963500774646924 0 0 0
4081 6 1 15.33932028000623 22.825692533662686 24.012095353219387 0 0 0
1887 51 1 3.763385071423552 21.87178558701782 21.954377538109334 1 0 1
2575 19 1 17.90584987818132 3.584848036127528 28.60075544669385 0 0 0
220 2 1 5.2356230616439845 26.19150562358562 22.904574608372528 0 -1 0
5967 48 1 1.9459581254014247 20.488550093349374 38.776218792986654 0 0 0
1285 7 1 2.824565892769658 13.377504934245696 21.726650336954034 1 0 1
8096 63 1 8.791334517426165 20.561158177061326 35.481021269801275 0 0 0
1908 18 1 11.44534175940879 23.68897217550882 25.162143785620092 0 0 0
1909 18 1 11.660981307489632 23.98586481965504 26.604041511359988 0 0 0
435 3 1 11.39445031580446 2.041090344874318 26.324913580539864 0 0 1
544 5 1 7.499867059094682 4.916826509124411 27.433681129495827 1 0 1
218 2 1 3.6234319847622145 26.296035022961746 20.96786233635355 0 -1 0
657 4 1 15.843183958028915 8.2053047308614 38.90876288328674 0 0 0
1444 11 1 7.008578192605699 8.724014256922146 38.986759891899936 0 0 0
592 9 1 11.814344251434305 6.648522443671445 26.951482402198522 0 0 1
4085 6 1 18.233391494639072 22.449312968867897 28.27631463326371 0 0 0
594 6 1 17.728792565998127 6.254901030079759 33.70397025463885 0 0 0
1584 14 1 3.80617821495714 17.55517558851221 22.37928529487669 1 0 1
7357 3 1 8.667365614448983 11.35949164352244 34.828286775646376 0 0 0
3546 26 1 14.079075524260436 12.662628740433489 23.954450193272404 0 0 1
3628 18 1 16.69029561031518 17.228873330272517 27.639492619101205 0 0 0
1658 15 1 15.351973281025153 19.60342650924388 32.286182877612916 0 0 0
6328 50 1 4.023856347167466 0.5253799279307281 35.417320439791 1 0 0
1893 16 1 8.002337203705006 22.53018466275882 28.399584975308386 0 0 0
8092 63 1 5.809889055760015 20.524326365898162 31.44969743765117 0 0 0
7843 60 1 8.129566293257692 15.361450152753573 35.02994716003627 0 0 0
8099 63 1 11.440980878596529 19.86405722959351 38.363639947003605 0 0 0
1301 12 1 14.606408684417477 13.591301143593427 38.31954956125375 0 0 0
6775 32 1 1.212823306034943 4.993972294805865 30.769328939019037 1 0 0
1587 14 1 6.093127132749889 18.19954080175679 25.45830190804792 1 0 1
860 12 1 11.911769047246246 11.625114429205164 26.88992430560845 0 0 0
861 12 1 12.594074509493515 10.578758271401627 27.78610388669872 0 0 0
862 12 1 13.131028759465408 11.179732846086612 29.063843851595408 0 0 0
863 12 1 14.110863492034559 10.305028567404142 29.949376597387946 0 0 0
3319 25 1 18.1181907539395 11.055533475215007 22.093766301385436 0 0 1
1350 13 1 15.086350176356756 15.354294528276533 32.11483812930324 0 0 0
1290 7 1 7.253483128337923 13.49301044091209 26.20698468299597 1 0 1
4302 32 1 17.545647852720776 24.188154577117338 21.291587216718803 0 0 0
8457 50 1 3.401410866063019 24.145914790140097 28.158644543480882 0 0 0
1347 13 1 13.782452519038987 15.091522917155158 28.466818404487306 0 0 0
8086 63 1 1.2257510583623386 20.1949921620035 25.197302777863428 0 0 0
545 5 1 8.760042542002207 4.4858890989236375 28.16910668307679 1 0 1
1588 14 1 6.725465247530733 17.53084643206949 26.67378581915915 1 0 1
1302 12 1 15.894999995534764 12.95445439270698 38.97446139130561 0 0 0
438 3 1 13.935301517848577 1.4154281493789964 29.223428122115234 0 0 1
7835 60 1 2.0388938074127942 14.916797380520432 27.005846159360637 0 0 0
1354 13 1 17.793102146444316 15.12837860920679 36.32910631525306 0 0 0
6325 50 1 2.0638571653495794 0.47225234659991827 31.95532315132501 1 0 0
1656 15 1 14.122167739172204 19.451447878103235 29.992737435043168 0 0 0
7566 58 1 3.359070737184554 13.78268552486251 34.09643583741608 0 0 0
8100 63 1 11.848949235318436 20.71805363950584 39.619416298303975 0 0 0
595 6 1 17.725757272780655 6.563779283445294 35.20199185115159 0 0 0
7360 3 1 10.160455968452395 11.406200267105191 38.27937296727206 0 0 0
6563 52 1 2.266213006494502 1.5282316588966567 25.821760826047807 0 0 0
538 5 1 3.033810434703479 4.511097753223268 21.21647934548378 1 0 1
7837 60 1 3.3489849802264917 15.272587966777419 29.177668375823636 0 0 0
1659 15 1 16.7923789342355 20.041039306316513 32.803045384938045 0 0 0
2814 22 1 18.01095798386057 6.633916099801878 21.796445357081463 0 0 0
6567 52 1 4.864478312251003 1.7835594902661125 30.28855488997956 0 0 0
1679 16 1 15.568585971814267 22.873877292278127 38.47639741288934 0 0 0
8300 49 1 4.001099376586369 22.606307199754703 35.443010186139276 1 0 0
629 6 1 16.14898888138007 6.349753313095363 31.52676950246432 0 0 0
1299 12 1 13.073962522884473 13.472425898177724 36.16251880770136 0 0 0
1300 12 1 14.315618643984708 12.993352396227111 36.930961896862996 0 0 0
1680 16 1 16.481132383361054 22.082104526193103 39.340660690681354 0 0 0
4083 6 1 16.588295464310498 22.65127273364301 26.255844621060888 0 0 0
6246 49 1 0.9180152566218702 25.05885725371326 37.92743207854373 1 0 0
1352 13 1 16.22096083172457 15.52735588135007 34.37406299188069 0 0 0
7569 58 1 5.022144399130714 13.055652474708376 37.529774613981644 0 0 0
1343 13 1 10.720208708295974 15.586608506175258 24.43458565925311 0 0 0
1344 13 1 10.745376009571247 15.258488596409205 25.90527746540825 0 0 0
1345 13 1 12.151934122858794 15.596478497647723 26.471171248545208 0 0 0
7352 3 1 4.638894802683217 11.676772605574254 29.700058755126683 0 0 0
8456 50 1 3.2071314936490185 24.720745260417363 26.760386579849573 0 0 0
1913 18 1 14.489986194170552 24.25090336948422 30.570726929754187 0 0 0
7013 58 1 11.725381273351717 7.535758135222263 39.08151283707283 0 0 0
4908 38 1 0.8028009907717257 6.770212604962775 36.03624111454654 1 0 0
7568 58 1 4.53190080256912 13.845520845381904 36.34762769242359 0 0 0
7834 60 1 1.5868454143393163 15.509112483321925 25.609303456528405 0 0 0
865 12 1 15.640123609742197 10.321566629276914 31.92308920958113 0 0 0
6572 52 1 8.675460818362367 2.720572031130198 35.40591226543859 0 0 0
4056 30 1 17.375464967344353 19.82076562366015 21.314328536038552 0 0 1
3544 26 1 12.729993229465562 12.65545056206243 21.781413306667385 0 0 1
1916 18 1 17.118550152041333 23.91419205492626 33.50067559939946 0 0 0
656 4 1 15.401760544824088 9.137761993426237 37.7681950013458 0 0 0
6574 52 1 10.447343117024554 2.7051090472254495 37.30413791861598 0 0 0
642 4 1 4.783304206575253 9.417074128389837 23.32925042322426 0 0 0
3846 18 1 12.960799101106797 17.049390788035268 21.144512481838202 0 0 0
1589 14 1 7.87611392687566 18.092251399360396 27.377556813800414 1 0 1
1342 13 1 9.328487607644004 15.454404918638174 23.794682014544197 0 0 0
3619 34 1 17.517716919829052 15.74439677516255 21.969580996799884 0 0 1
856 12 1 9.100128554986904 11.605127791686822 22.367782621984308 0 0 0
2131 21 1 18.27386739286876 26.223896646588425 29.43017656107358 0 -1 0
8298 49 1 2.4085886688098834 22.446862049719037 33.61852133447598 1 0 0
8094 63 1 7.380659969332945 20.43987109330867 33.44910118858733 0 0 0
1593 14 1 10.775011604495631 18.092372121212694 31.644570360728068 0 0 1
546 5 1 8.987790733517265 5.0294776555461205 29.615484602293066 1 0 1
2569 20 1 17.91156830761202 1.939873203067091 21.557640714026174 0 0 1
1590 14 1 8.300769593268429 17.423371226733426 28.688922228558734 0 0 1
7003 58 1 4.437338494844502 6.889638207834712 28.53210038180011 0 0 0
6784 32 1 7.896395082218844 4.2030582943151815 40.26135515912935 0 0 0
7841 60 1 6.758226763549688 15.36401561873715 32.84470125763447 0 0 0
1596 13 1 12.848157736025504 17.222309534891235 34.99822295480021 0 0 0
1597 13 1 13.710871608513235 17.954857744807466 36.013495510468616 0 0 0
1598 13 1 14.238798799935294 17.223806387401655 37.226912159376745 0 0 0
1599 13 1 15.022116176505255 18.003254750563727 38.27497235393001 0 0 0
4616 38 1 2.6934549896360473 2.685409979321155 38.89181037000404 0 0 0
7971 60 1 12.204780419845038 15.847048423835375 40.15543268224236 0 0 0
269 60 1 10.676413042279142 15.985088555733405 38.01011307089769 0 0 0
541 5 1 5.664734807692768 4.067458218572575 24.110386546745385 1 0 1
6777 32 1 2.730296359979319 5.110509043955042 32.87069643761191 1 0 0
1653 15 1 12.722393211620714 19.36451037176756 26.405003923668993 0 0 0
6576 52 1 11.806977234845057 2.4901385431062346 39.44191744998564 0 0 0
8466 50 1 10.614931030854702 24.95991760961805 37.12091174941922 0 0 0
2794 19 1 14.607553693710717 4.403525620944159 23.28602635337246 0 0 0
590 9 1 10.280147637001937 6.779140494409496 24.901872122241038 0 0 1
1377 13 1 16.595825408690892 17.878364804141643 40.20612432891491 0 0 0
7358 3 1 8.601482193432984 11.450669545033149 36.356646481814785 0 0 0
1592 14 1 9.933868433486381 17.235523456666463 30.726640464830666 0 0 1
6561 52 1 0.7127144616919618 1.7080484959803717 23.698907126245395 0 0 0
7866 16 1 1.6368037040922436 17.777257868002145 32.46774636112057 0 0 0
1911 18 1 12.992739816599416 23.978136787324864 28.659517367547746 0 0 0
1595 13 1 12.1995175889182 18.062647440338775 33.87692803313564 0 0 0
647 4 1 8.711300983794787 8.516762504066229 28.37663691195514 0 0 0
6776 32 1 1.8725191348633745 4.227836243335251 31.92673591263086 1 0 0
2792 19 1 13.018176365290621 4.472956843674947 21.38678224902256 0 0 0
2124 21 1 13.698304448818408 0.15538389493850666 21.681380755722326 0 0 0
2885 24 1 17.254430042211542 8.391520010440429 28.162624275099365 0 0 0
4079 6 1 13.991199090779082 22.766879314271154 21.785613161108568 0 0 0
1662 15 1 18.277700615562136 20.08940219852176 36.33700663046727 0 0 0
1675 16 1 12.348414868302173 22.641617823040924 34.398152810621696 0 0 0
2125 21 1 13.702333517939222 26.324553237713076 23.142746312785473 0 -1 0
5506 45 1 1.2355137991305702 15.601112415128888 39.02674121384864 1 0 0
5217 42 1 0.9212213978865753 11.325380282251226 38.56095419740045 1 0 0
7348 3 1 1.4016171175030443 11.111142960698324 25.781619476144456 0 0 0
3 2 1 9.882712457481805 0.24097402190550488 30.5891880097805 0 0 0
6564 52 1 2.9743706955331013 2.3311882428825217 26.891935236591067 0 0 0
5 2 1 11.449701527622267 0.5201282986757986 32.58224152182803 0 0 0
7000 58 1 2.014663443211158 6.027701614179439 25.653437673139642 0 0 0
7004 58 1 4.723860801753706 6.431327943757762 29.975340869650594 0 0 0
7356 3 1 7.254208959635893 11.444922602279817 34.196655319564876 0 0 0
1293 7 1 8.719027704568825 13.707497236839687 29.733137431990258 0 0 1
1288 7 1 5.904428577469975 13.285892508368974 24.138297923765634 1 0 1
1894 16 1 9.18551078287094 21.760729449067377 28.948336504515844 0 0 0
1895 16 1 9.817424430353624 22.464842080201876 30.15054003920163 0 0 0
1896 16 1 10.720180537902172 21.680550265725586 31.140297687624262 0 0 0
1897 16 1 11.102530785774256 22.614291170097225 32.266441331696804 0 0 0
1898 16 1 11.736405655929167 21.77574328220376 33.32478363367497 0 0 0
1904 18 1 8.49906275068368 23.717789387433786 20.976916159811704 0 0 0
6593 11 1 5.5707206152982724 8.841620835910524 37.01658016530121 0 0 0
2296 11 1 3.0336016037557005 9.352889134208892 34.24421910588088 0 0 0
7840 60 1 6.110756784977673 16.153910073638762 31.744204310569238 0 0 0
1341 13 1 9.356410329096759 15.790250871586899 22.34658329649198 0 0 0
1650 15 1 9.994921884459735 19.580149285351737 23.551654792329504 0 0 0
3547 26 1 15.38458696693222 13.253586098215148 24.65574593805493 0 0 1
1660 15 1 16.754922497662502 19.97768136271121 34.31229989569165 0 0 0
3318 25 1 17.15943024879147 11.73851092724957 21.11854229367767 0 0 1
9 2 1 13.940762317346007 0.4497332545537717 36.68544434627342 0 0 0
1348 13 1 13.867157343114675 14.70191075344019 29.95407327282411 0 0 0
4084 6 1 17.142083332185358 21.841813359495855 27.44503712849813 0 0 0
643 4 1 5.742941504847676 8.514172337778023 24.14089518964843 0 0 0
1291 7 1 7.406703998071805 13.79904160260037 27.69325735041886 1 0 1
8297 49 1 1.5820956008119933 21.708015410200137 32.60385814239241 1 0 0
221 2 1 5.630771075731506 0.22259469513574492 24.23490226508328 0 0 0
7359 3 1 10.023204740223512 11.112417526143421 36.829000563796605 0 0 0
8459 50 1 4.759083648909063 24.445079477532342 30.267517897117685 0 0 0
8091 63 1 5.610232435417729 20.21471808568969 29.938425106202118 0 0 0
6560 52 1 0.19395483329437435 2.588519837894947 22.51280536573195 0 0 0
11 2 1 15.294546542170426 0.3402230302489746 38.923932748761416 0 0 0
8299 49 1 3.3800937566443188 21.675622879290895 34.51919401056919 1 0 0
7864 16 1 0.33067397551231437 17.63818901214857 30.298230799598045 0 0 0
1905 18 1 8.7227007511833 24.14075738863108 22.38241014446295 0 0 0
654 4 1 13.972428282562012 9.355074101202097 35.75684111254187 0 0 0
6570 52 1 7.252266039762956 2.6531445871521666 33.18130731768661 0 0 0
5966 48 1 1.2169533178071554 19.73055828165429 37.66413225001316 0 0 0
8296 49 1 1.0528784256689112 22.565379610636754 31.471063638138954 1 0 0
4909 38 1 0.8978985123204581 6.806220763898795 37.570745477133286 1 0 0
867 12 1 17.075441987827762 10.440053159459968 33.96063511723422 0 0 0
4614 38 1 1.1882203226599173 2.6018655103281527 36.85219988879693 0 0 0
857 12 1 9.642856452597172 10.889524597496829 23.595948018552185 0 0 0
8085 63 1 1.2135131925951133 20.045708737460775 23.697507442418257 0 0 0
651 4 1 11.467348256969489 8.65816421416465 32.814718820283446 0 0 0
640 4 1 3.3610086166489888 9.551010348041293 21.1789519894081 0 0 0
650 4 1 10.610347015063855 9.438800864100507 31.76794815626058 0 0 0
8089 63 1 4.097273488890488 19.969138242078998 27.97305046954558 0 0 0
2882 24 1 15.428753317456268 9.304066320255505 24.80754241567775 0 0 0
8087 63 1 2.6297299194231463 19.857129199343802 25.80829844831768 0 0 0
3550 63 1 16.981706363788852 12.960318952347881 28.200733164869916 0 0 0
7006 58 1 6.119952139380801 6.639778374233138 32.064717552448165 0 0 0
6327 50 1 3.7183306157380747 0.17036819076057994 33.992233990309174 1 0 0
1910 18 1 13.020308721062154 23.707194583019927 27.10592208299963 0 0 0
797 11 1 5.727206495058306 9.334997936538555 38.40676991900128 0 0 0
8 2 1 14.119418043241728 26.62826687581116 35.27334672725624 0 -1 0
6326 50 1 2.4550888702530904 0.7912830636777861 33.37293856367923 1 0 0
6332 50 1 6.9852096837647935 0.6262414030213059 39.21147218964916 0 0 0
551 5 1 13.188245933716695 4.140723056600094 34.3813066664645 1 0 1
2881 24 1 14.949841053833165 8.500564406506163 23.62935443385377 0 0 0
7361 3 1 11.4963128226034 10.992033134578495 38.79291903747223 0 0 0
2573 19 1 16.3209426763543 3.7869390906647302 26.743027339271315 0 0 0
648 4 1 9.049126743120135 9.319119387453561 29.69035324803298 0 0 0
1648 15 1 8.695590302895615 19.90590304668063 21.448991571318043 0 0 0
431 3 1 8.598424592021022 1.870887044621692 22.23748203675534 1 0 1
5218 42 1 2.2657016318825747 10.84605240302086 39.249000240783154 1 0 0
646 4 1 8.008092848312467 9.343749668755263 27.307955637576704 0 0 0
8088 63 1 2.734102876773423 20.238839776738708 27.277252485232665 0 0 0
6331 50 1 6.7105125852334355 26.44174672176052 38.0337917735944 1 -1 0
7833 60 1 0.660398206688384 14.759187729665902 24.70915279453511 0 0 0
7007 58 1 7.451043426285626 7.051095584241006 32.77164113180425 0 0 0
7354 3 1 5.875158452148794 11.60649650737376 31.896241292363776 0 0 0
539 5 1 4.205816961506223 3.9438664397445597 21.935843377873177 1 0 1
7012 58 1 10.852076563127088 6.6525202113210735 38.20907925508711 0 0 0
6573 52 1 9.468883272741973 1.9014374728773118 36.44688048196544 0 0 0
7844 60 1 9.02790242515513 16.067786143522735 35.934518115875846 0 0 0
3625 18 1 15.15819807160434 18.102666048239655 24.19705304892718 0 0 0
7870 16 1 4.702605719490112 17.738537934916533 36.64292099453444 0 0 0
2572 19 1 16.096845462507268 4.4135822140877785 25.346046044716708 0 0 0
6575 52 1 10.815433156739664 1.804174854123515 38.43513303402136 0 0 0
7355 3 1 7.22127362204585 11.253866026552203 32.641034977259324 0 0 0
8467 50 1 10.709630658602794 24.404904614669867 38.50833967758697 0 0 0
7349 3 1 2.6396833302957496 10.63168562110098 26.463342853288705 0 0 0
1917 18 1 17.14017701210125 24.291690110950608 35.00064604895522 0 0 0
3327 63 1 18.073238794336554 13.726956384142994 28.937559085612822 0 0 0
3549 63 1 16.869859960803296 13.253225016629393 26.696654209856575 0 0 0
658 4 1 16.52297281946869 9.15570578490181 39.91941251130662 0 0 0
1891 51 1 6.4428983073330555 22.70797931344979 26.44940643109631 0 0 1
859 12 1 11.222747079342696 10.953292007222103 25.6930249253186 0 0 0
1349 13 1 15.081286025365255 15.490861299057318 30.561347043390462 0 0 0
6330 50 1 5.4923680391173715 0.38316155545663033 37.42396102902839 1 0 0
8302 49 1 5.713636721547513 22.83759134251802 37.3845634836881 1 0 0
1600 13 1 15.788041599408356 17.122780626962243 39.19889041617844 0 0 0
4 2 1 10.927944850028988 26.294339749471895 31.478367407195428 0 -1 0
1915 18 1 15.873914011313186 24.15995689829701 32.704228309978454 0 0 0
1298 12 1 12.90264560033262 12.98617242613691 34.719215179574505 0 0 0
7845 60 1 9.449865287550363 15.404964954249929 37.2436686144315 0 0 0
7002 58 1 3.541521304831301 5.971035549112017 27.69478153096499 0 0 0
7005 58 1 5.939084406029954 7.075997629691741 30.58696106972468 0 0 0
630 6 1 16.279030704438426 6.420833305578257 33.04162256407568 0 0 0
718 11 1 2.806126629467579 9.174251055703362 32.73170597619728 0 0 0
1677 16 1 13.879880144142364 22.823221445284247 36.42069513984995 0 0 0
555 5 1 16.15841764688959 4.354021530469607 38.55898850816042 0 0 1
550 5 1 11.976847165489346 4.714818998420203 33.70305277915009 1 0 1
7565 58 1 2.3609190256099755 12.927521183820163 33.34100834086593 0 0 0
1676 16 1 13.290373052472983 21.887729114907653 35.39093205919018 0 0 0
626 6 1 13.326818294898834 6.500505754870655 28.97218854343429 0 0 0
8454 50 1 1.7621492264323457 24.835526158145264 24.68772646096224 1 0 0
1649 15 1 10.054255405381568 19.612807667098558 22.011277845514176 0 0 0
1287 7 1 4.523495932205531 13.42326872116369 23.651190955582404 1 0 1
7351 3 1 4.391980198868875 11.038020867955696 28.312339418186223 0 0 0
5216 42 1 0.8609969802162032 10.864895497700859 37.14121166745274 1 0 0
655 4 1 14.77036884921163 8.41189611726718 36.59931482734936 0 0 0
8090 63 1 4.216125136934743 20.49759268331712 29.392820789928322 0 0 0
627 6 1 14.707793722548468 6.3617502327346225 29.487112096261818 0 0 0
8455 50 1 2.20181107570394 23.94704786852679 25.844660910887683 0 0 0
8093 63 1 7.217669711755939 20.033721123795836 31.930329792266626 0 0 0
8463 50 1 8.050735246236997 24.252745725760263 34.21423813987388 0 0 0
2047 11 1 1.3388461424180176 9.136709842330855 32.263982133604216 0 0 0
587 9 1 8.65444700199198 6.237821761960737 21.320019136048458 0 0 1
649 4 1 9.933780767672296 8.551207578716467 30.64356470062193 0 0 0
8468 50 1 12.128530800435287 24.435826810418554 39.12768668208672 0 0 0
7350 3 1 3.009882434423561 11.457077712248429 27.694157222098042 0 0 0
441 3 1 16.075147185390815 2.3761500735844496 32.416448187838355 0 0 1
1918 18 1 18.456354080859768 23.8330124781069 35.72876476134574 0 0 0
542 5 1 6.04556061835495 4.8389998997311325 25.27008289283178 1 0 1
6778 32 1 3.322463746175966 4.320186158750517 33.99852385724947 1 0 0
8462 50 1 7.658760460238856 24.88835321161732 32.87272004326681 0 0 0
12 2 1 16.558666868529585 26.450215802008223 39.55358094966792 0 -1 0
7868 16 1 3.2336132864372438 17.7888170881236 34.55954036674335 0 0 0
2879 24 1 13.202067439547603 8.186062711327109 21.875906717140627 0 0 0
644 4 1 6.298186901826054 9.364296936245394 25.30992800027814 0 0 0
430 3 1 7.952493369750672 1.1552891824044071 21.033688227455507 1 0 1
7839 60 1 4.988969862204113 15.357812321150892 31.10454737526041 0 0 0
6835 11 1 4.47095838250166 9.49594874812072 36.14966008615778 0 0 0
7842 60 1 7.644278482023498 16.17663152878695 33.78222639394718 0 0 0
7564 58 1 1.7308694128313933 13.665153114672185 32.17578224774063 0 0 0
641 4 1 4.391925952446444 8.797984314022827 21.981328022483215 0 0 0
5776 60 1 10.90836769994098 15.43587849006503 39.42382506194521 0 0 0
433 3 1 10.002297210662984 1.970566553789535 24.29687345238307 1 0 1
593 9 1 13.251756348406188 6.572840394092643 27.41761254168739 0 0 1
7871 16 1 6.062673709887738 18.112788524289375 37.131475908128806 0 0 0
6247 49 1 2.3507666813161547 24.992289899378758 38.46249939815381 1 0 0
8304 49 1 7.53090260695263 23.034599893297596 39.181769272092325 0 0 0
3545 26 1 14.071771668425551 13.117054439118169 22.40507490659597 0 0 1
1661 15 1 18.168826603216832 20.070014743124972 34.835347210369704 0 0 0
588 9 1 8.845244867166699 6.508383118038308 22.800261681436737 0 0 1
1652 15 1 11.373557296235226 19.58904959054737 25.70000863400503 0 0 0
1651 15 1 11.363045451556866 19.333309101279838 24.149165867459473 0 0 0
7872 16 1 6.2534492174422915 18.21385279485065 38.60636590134089 0 0 0
6 2 1 12.656435445440344 26.55154805635945 33.246356239069016 0 -1 0
6569 52 1 6.416733537723393 1.7713973275282147 32.25776272029188 0 0 0
7571 58 1 6.371214804936912 12.94351605804653 39.607244455679286 0 0 0
7867 16 1 3.08650510290974 17.84214081083988 33.06698182163682 0 0 0
4910 38 1 2.186340324089986 6.303617524383547 38.21711861634709 1 0 0
432 3 1 9.572448009357252 1.098472478565771 23.13823250956039 1 0 1
868 12 1 17.57117979191352 11.339159128504946 35.05660599254601 0 0 0
8464 50 1 9.13272184155823 25.00874106897411 34.973451005108764 0 0 0
8095 63 1 8.527726426820237 19.77033562690188 34.18769487300321 0 0 0
8098 63 1 10.217948731181583 20.529050700526152 37.69367297868692 0 0 0
1914 18 1 15.912945447537073 24.061025991038612 31.163840141922613 0 0 0
6571 52 1 7.854024800998095 1.9579533529099398 34.36416585542367 0 0 0
1353 13 1 17.564751826254962 15.837901546150437 35.0491322774238 0 0 0
2130 21 1 17.916274322039136 0.21877882411235267 28.066218900253688 0 0 0
6562 52 1 1.7377505386381111 2.378564172776688 24.66211229823578 0 0 0
6323 50 1 0.3993888867106458 0.32874549494986427 30.096289101545917 1 0 0
6780 32 1 4.810719576405849 4.290161041711888 36.154427435349675 0 0 0
855 12 1 8.199189056486864 10.703582900698068 21.607245050190254 0 0 0
6333 50 1 7.893871903233506 26.59963250572816 40.24457791418599 0 -1 0
2884 24 1 16.680191924970494 9.227823542966881 27.074249746354866 0 0 0
554 5 1 14.829175105735438 4.569526581326799 37.886997814410236 0 0 1
8303 49 1 6.627201221539142 22.097340652991903 38.342639746161026 1 0 0
6565 52 1 3.4338885372017147 1.4622142340334117 28.08699887152591 0 0 0
7353 3 1 5.918521584858933 11.193067046004224 30.38855167586849 0 0 0
1906 18 1 9.918958132002349 23.54805550811031 23.11698199135223 0 0 0
2530 11 1 1.1583676157967795 9.134175227969449 30.751256929940574 0 0 0
553 5 1 14.809569206966414 4.315069573954312 36.363466271861526 0 0 1
219 2 1 4.064534073663864 0.27338510866463034 22.235942090247697 0 0 0
6248 49 1 2.5085273561343913 24.879932813652765 39.973821370611304 1 0 0
8461 50 1 6.273143675354224 24.51866466869249 32.31472331853692 0 0 0
2793 19 1 13.417112547724008 3.751460089107337 22.6501138184317 0 0 0
6566 52 1 4.532363088900962 2.3012363182348152 28.844262784590676 0 0 0
869 12 1 18.833576764695454 10.700323713842325 35.788560711426136 0 0 0
645 4 1 7.276086220170085 8.580196298072906 26.222563219927583 0 0 0
443 3 1 17.45848871458014 2.6465223649495773 34.53049207044713 0 0 1
8465 50 1 9.346466157126525 24.53600687222348 36.43303866861045 0 0 0
1912 18 1 14.400937642393874 24.07514204506712 29.079296329104807 0 0 0
3626 18 1 15.454883787976522 17.21896556806016 25.42598116001187 0 0 0
5968 48 1 2.741393073622266 19.559871886123886 39.672682966551676 0 0 0
6324 50 1 0.6177967519962109 0.67429394906734 31.57521262956213 1 0 0
556 5 1 16.063407399012927 4.378625568945873 40.06986360877892 0 0 1
8097 63 1 9.81691332955099 19.87740397840351 36.3892121105985 0 0 0
3328 63 1 18.2994166842022 13.179726932525385 30.340057992553902 0 0 0
8453 50 1 0.8862785998201678 24.08283995147693 23.75607120449614 1 0 0
540 5 1 4.5558992098676026 4.680641884995495 23.267250004100976 1 0 1
652 4 1 12.373902793577962 9.47033851387711 33.79753788469394 0 0 0
7008 58 1 7.597214023292828 6.542373356503871 34.19986380377309 0 0 0