LAMMPS data file via write_data, version 23 Jun 2022, timestep = 1000000

9706 atoms
2 atom types
9690 bonds
3 bond types
9674 angles
3 angle types
9658 dihedrals
3 dihedral types

0 36.89775039 xlo xhi
0 26.67072 ylo yhi
0 236.7516044 zlo zhi
0 7.448720975 0 xy xz yz

Masses

1 14
2 15

Pair Coeffs # lj/cut/omp

1 0.0914 3.95
2 0.1947 3.75

Bond Coeffs # harmonic/omp

1 449.5 1.53
2 449.5 1.53
3 449.5 1.53

Angle Coeffs # harmonic/omp

1 62.0967 114
2 62.0967 114
3 62.0967 114

Dihedral Coeffs # opls/omp

1 1.411 -0.271 3.145 0
2 1.411 -0.271 3.145 0
3 1.411 -0.271 3.145 0

Atoms # molecular

1 2 1 9.173489346728473 26.312385553314332 12.995619684697965 0 -1 0
2 2 1 9.555872156338696 0.49059445753056835 14.184058899089552 0 0 0
3 2 1 10.512197069957962 26.44094457199573 15.161509484340792 0 -1 0
4 2 1 10.354380548625178 0.4203173442403267 16.50280993109765 0 0 0
5 2 1 11.486201554611744 0.0020836727510550996 17.412859153971688 0 0 0
6 2 1 11.417755896608545 0.3929023613249674 18.873365114619027 0 0 0
7 2 1 12.556677419916067 26.59038786741842 19.711841495835163 0 -1 0
8 2 1 12.728410834759748 0.5681292358980862 21.068687990081102 0 0 0
215 17 1 3.284581157443538 0.17077923798872646 1.6814187769237867 0 0 1
4037 28 1 18.691249394942155 17.81847708249172 15.144969384993683 0 0 0
849 8 1 13.942678072231095 9.156489853612502 22.02521905929885 0 0 0
8433 2 1 7.903928288861449 11.57219005589497 19.252658217734062 0 0 0
218 2 1 4.355725589616056 0.3411722080745626 5.3508361502109 0 0 0
219 2 1 5.58086900147258 26.477834482956656 6.152580541790412 0 -1 0
220 2 1 5.679182813006923 0.3619880308115198 7.604644850476088 0 0 0
221 2 1 6.88442392355345 26.529098410063074 8.39570245013971 0 -1 0
222 2 1 6.906839772351485 0.19186163022124655 9.900827636357217 0 0 0
223 2 1 8.027160532889667 26.249840359450587 10.740638383737807 0 -1 0
224 2 1 8.031865938113963 0.18255633397535603 12.158804756028596 0 0 0
304 6 1 8.837454229714345 2.325851085680387 5.60293600631727 0 0 0
305 6 1 10.107235198556612 1.9210300302586136 6.402361655944261 0 0 0
306 6 1 10.136815293083886 2.2573312150172007 7.937622160566655 0 0 0
307 6 1 11.524211961008984 2.112428187770318 8.616867595762727 0 0 0
308 6 1 11.552736646794067 2.5572096210181465 10.147370088055858 0 0 0
309 6 1 12.796332997142365 2.030672427745163 10.874601312415638 0 0 0
310 6 1 12.711548631581838 2.6601470240403016 12.297416551414532 0 0 0
311 6 1 13.799109938986348 2.294233389129808 13.20295454802335 0 0 0
312 6 1 13.762095741200971 2.9105632338067102 14.605612092785877 0 0 0
313 6 1 14.567891856173741 2.079885232082011 15.59981241151246 0 0 0
314 6 1 14.664921604775985 2.578796043903148 16.98897765292671 0 0 0
826 6 1 8.20722804883581 6.544787888583811 3.843434710304353 0 0 0
4184 24 1 17.491055883410866 19.83685524769764 2.183427947531133 0 0 0
7691 50 1 2.6470815701529857 5.199896574970655 18.650724476474082 0 0 0
379 6 1 6.5099743588928956 2.3655330232461496 0.9150054596313366 0 0 0
380 6 1 7.473880959318803 1.636678076852952 1.8819855977471023 0 0 0
381 6 1 7.734855747753451 2.266166523986802 3.2936577806227 0 0 0
382 6 1 8.935941872244381 1.784441466576862 4.170344094857784 0 0 0
383 57 1 6.7302155250023254 4.3034599758996555 8.148907585730152 0 0 0
384 57 1 6.967861542971006 5.0125986869490315 9.435177341038797 0 0 0
385 57 1 8.104704648034957 4.386728003793327 10.289986031256372 0 0 0
386 57 1 8.211415634338872 5.100235017336155 11.611276868638544 0 0 0
387 57 1 9.184388554838389 4.462549749054588 12.540782466076271 0 0 0
388 57 1 9.198014642426934 4.9597552531879785 13.964203211097288 0 0 0
389 57 1 10.188061268848056 4.425290508707035 14.870379696567227 0 0 0
390 57 1 10.116025216449373 5.00795287900568 16.290542762761447 0 0 0
391 57 1 11.148977909543406 4.352116401149818 17.184644546750636 0 0 0
392 57 1 11.201337092822932 4.883158929397437 18.53934780144066 0 0 0
393 57 1 12.310001561199385 4.368243180615428 19.459702745901833 0 0 0
316 6 1 15.79730131569655 2.5901326369871525 19.281344239127602 0 0 0
2379 16 1 17.32499644779859 0.6098584773447221 12.610058399315166 0 0 0
601 57 1 3.1246166692694475 4.243764390875104 1.4021349207087321 0 0 0
602 57 1 3.2340310549777866 4.873535350606838 2.8129909672408555 0 0 0
603 57 1 4.377449426976862 4.303614168366261 3.638724322198291 0 0 0
604 57 1 4.675606872242358 4.95480968339901 4.9989941446266055 0 0 0
605 57 1 5.7833596101029165 4.335282720029827 5.806687090205235 0 0 0
606 57 1 5.81829070617657 5.0358249970377305 7.178442634402627 0 0 0
607 6 1 11.870584156305108 7.135518961232287 8.971346032728984 0 0 0
608 6 1 11.706377031655833 7.110340116156303 10.459521939989454 0 0 0
609 6 1 13.041794838021366 7.015687833711247 11.18745859203222 0 0 0
610 6 1 12.912877254539417 7.065050771913854 12.705348342730826 0 0 0
611 6 1 14.250583770238757 6.850032721303777 13.476207920825164 0 0 0
612 6 1 14.038599324511232 6.7598233133659615 14.978989613378399 0 0 0
613 6 1 15.334016402553795 6.643008159316988 15.69494846213306 0 0 0
614 6 1 15.054403227258943 6.617088155241083 17.163554678430888 0 0 0
615 6 1 16.327627429906343 7.006244773024304 18.027032187098406 0 0 0
616 6 1 16.236038484825293 6.724350605194409 19.49565317261657 0 0 0
617 6 1 17.363066770450395 7.3766991565327436 20.262398631180503 0 0 0
3802 24 1 17.46241058843605 15.646360419371048 3.1388631109471627 0 0 0
9511 51 1 9.096982150467968 25.42421766834246 23.188833831910046 0 0 0
7590 48 1 2.4273311458695517 2.901184785416406 7.507739611555672 0 0 0
827 6 1 9.485179121921794 7.090261529133548 4.402060054459205 0 0 0
828 6 1 9.351500591948607 7.043257428083961 5.945035500393278 0 0 0
829 6 1 10.633093716961964 7.090028307362686 6.686903871089979 0 0 0
830 6 1 10.583941556523765 6.921171938921518 8.204897411111247 0 0 0
831 8 1 3.3527008459493537 9.069217506414041 1.3178493802747975 0 0 0
832 8 1 3.7190859735588226 9.715048666703236 2.6360713839825403 0 0 0
833 8 1 4.213681310190847 8.865886095374185 3.8289846183874774 0 0 0
834 8 1 4.577244439615621 9.576174300602261 5.140928056817929 0 0 0
835 8 1 5.605619686215475 8.878780568235289 6.045794771642136 0 0 0
836 8 1 5.5304734022997994 9.379347849189026 7.476581626511103 0 0 0
837 8 1 6.73651405210349 9.067259299484437 8.37764342247622 0 0 0
838 8 1 6.62909695905801 9.512997934343762 9.822081578038691 0 0 0
839 8 1 7.872808739401964 9.164988097383738 10.594568371941726 0 0 0
840 8 1 7.767021668081573 9.564839833158175 12.068482380747907 0 0 0
841 8 1 9.008612456268448 9.128014923087202 12.830444811466128 0 0 0
842 8 1 9.07000943887413 9.593527543840285 14.276364658015353 0 0 0
4406 24 1 16.20505542407787 19.84406832551153 0.03199433837004954 0 0 0
9186 60 1 0.45195133370485496 20.860117076532322 7.349904244777706 0 0 0
4566 22 1 17.24619452406715 24.58723381702809 4.267728514140774 0 0 0
4025 28 1 11.843554786727362 17.664703128129457 1.4583795028976956 0 0 0
848 8 1 12.642773085543324 9.346025691739428 21.232224323644818 0 0 0
2889 9 1 11.701178137655644 4.194687284918414 1.6955813768369021 0 0 0
8518 60 1 4.41347570512313 14.200170354291313 22.867067100203027 0 0 0
1134 9 1 12.673923393146381 11.18040125491839 10.988676151581704 0 0 0
1135 9 1 12.610962319187227 10.762150892231887 12.470553768966512 0 0 0
1136 9 1 13.845522706461601 11.072409540446925 13.348620175517281 0 0 0
1137 9 1 13.66981206816879 11.442871212623471 14.803052038161788 0 0 0
1138 9 1 14.967475393786458 11.617381502958763 15.552877157079184 0 0 0
1139 9 1 14.88029220861283 11.483857726750305 17.036281018026056 0 0 0
1140 9 1 16.156877830688796 11.732274747584118 17.82949799712935 0 0 0
1141 9 1 16.3646283453632 11.374886561305319 19.314331617888442 0 0 0
1142 9 1 17.60093908866124 11.619689184580778 20.175468500882673 0 0 0
1143 9 1 17.566282145320372 11.482629555809881 21.717524655604954 0 0 0
2377 16 1 16.117427089886714 0.2396009512264045 10.33517160400834 0 0 0
3418 19 1 12.56274173310555 9.376511520287627 3.943448537776535 0 0 0
2371 16 1 12.640329807932565 0.3994588926139172 3.5784953925375755 0 0 0
8516 60 1 3.1794077543845 13.846814900882368 20.64525371824467 0 0 0
1209 9 1 10.194327945731567 11.228559627869386 6.4583464759781455 0 0 0
1210 9 1 10.236641455336192 11.144097698104467 7.9963357887859265 0 0 0
1211 9 1 11.577368006350875 11.1802430285009 8.733585324642412 0 0 0
1212 9 1 11.357934099051214 11.05588371842463 10.27610362479588 0 0 0
1213 61 1 8.172873805049583 13.943422340409665 11.979202223905506 0 0 0
1214 61 1 9.241288565363782 13.301749243381874 12.818673174471476 0 0 0
1215 61 1 9.258851878971038 13.7714026250513 14.254789146143514 0 0 0
1216 61 1 10.24378631070744 13.173287454250074 15.152945924570698 0 0 0
1217 61 1 10.197769027646679 13.639271934502633 16.594145691819513 0 0 0
1218 61 1 11.373818716582539 13.127969862235137 17.399509161247042 0 0 0
1219 61 1 11.37991317134484 13.758012875957847 18.794036516412657 0 0 0
1220 61 1 12.646696304093483 13.385733586117711 19.577892036445444 0 0 0
1221 61 1 12.519235812800119 13.68188523449233 21.091299395802658 0 0 0
2596 1 1 17.39878963984638 2.661360727284999 4.586204045741654 0 0 0
8897 44 1 1.6557432915604702 18.15658522766145 17.74008893156433 0 0 0
7592 48 1 3.4324462311666584 2.762982080677682 9.848862966617654 0 0 0
4414 28 1 16.617301617134768 22.15502919342463 11.034403480966956 0 0 0
1286 61 1 4.272969202934478 14.288624247907016 5.266232332079406 0 0 0
1287 61 1 5.385295444178567 13.648918015701566 6.128900708312174 0 0 0
1288 61 1 5.635123237065533 14.236701926766763 7.5270873746567375 0 0 0
1289 61 1 6.593359330065686 13.47855975147374 8.434246823751359 0 0 0
1290 61 1 6.825409106020856 14.080989803142426 9.810124166854314 0 0 0
1291 61 1 7.755931319405441 13.240113581446497 10.666971724966812 0 0 0
1456 11 1 12.044697944770563 15.272353349104124 10.714355332690534 0 0 0
1457 11 1 12.494818614404352 16.145687637173655 11.925332173084222 0 0 0
1458 11 1 13.737741159653224 15.721007068509 12.705416440868202 0 0 0
1459 11 1 13.792555268498713 16.26956193638907 14.146873238619932 0 0 0
1460 11 1 15.017159747633677 15.923335149376735 14.97206577885966 0 0 0
1461 11 1 14.746949659975428 15.8691066938099 16.49406065852685 0 0 0
1462 11 1 15.951377046607611 15.571774065445187 17.33308838699611 0 0 0
1463 11 1 15.59669984122474 15.706783137347893 18.829739171662414 0 0 0
1464 11 1 16.886081838905785 15.553014830847887 19.699115432340193 0 0 0
8815 57 1 8.835486384362365 16.084040878141778 23.078085708272877 0 0 0
4183 24 1 16.17361814253278 20.22888063650204 1.4762460621263394 0 0 0
1452 10 1 6.085092363935123 16.071580228269386 1.0802084541633235 0 0 1
8511 60 1 0.8166129570918195 13.802448924832003 14.694537844270636 0 0 0
1455 10 1 8.571439693803812 15.181381116725124 4.0228405718517015 0 0 1
8512 60 1 0.8168880329147533 14.037177574961706 16.224297071181596 0 0 0
7902 31 1 1.6760135627218498 7.114463680779752 8.754335463087685 0 0 0
1533 11 1 10.837506764536121 15.04861307259489 8.56210249087684 0 0 0
1534 11 1 10.917177595352623 15.774121232159256 9.898350135492773 0 0 0
1535 12 1 6.251486379537876 18.206343872750296 9.958429313240392 0 0 0
1536 12 1 7.487287959699997 17.76879871706307 10.64133285193101 0 0 0
1537 12 1 7.501587415879948 18.07857468970934 12.161383109346128 0 0 0
1538 12 1 8.808448576674099 17.744776517628104 12.866590780009098 0 0 0
1539 12 1 8.855335131272753 18.35193225054023 14.272809628228945 0 0 0
1540 12 1 10.125666978298657 17.9859556743427 15.032782478523878 0 0 0
1541 12 1 10.040410914203537 17.919744191489222 16.53966298334663 0 0 0
1542 12 1 11.408574339899312 17.659907340595655 17.186766500062614 0 0 0
1543 12 1 11.458445323898585 18.231869133018858 18.592134769999063 0 0 0
1544 12 1 12.868873480137614 18.004983523169777 19.285847564003976 0 0 0
1545 12 1 12.61956808769384 18.221478055774302 20.774537963388163 0 0 0
1546 12 1 13.877592375754169 18.082647165266938 21.577814408636637 0 0 0
8896 44 1 1.8123447966745754 18.396289898968256 16.23462243315308 0 0 0
619 6 1 18.61694688681865 7.52078821805428 22.468088815345013 0 0 0
1754 12 1 4.16270773117855 18.771228879150158 3.950075368281768 0 0 0
1755 12 1 3.997753576244812 18.61780484436972 5.462452461431535 0 0 0
1756 12 1 5.3126158837234 18.260948646743113 6.193958767757828 0 0 0
1757 12 1 5.167373666383928 18.197114729615862 7.690620758526248 0 0 0
1758 12 1 6.469149885463843 18.177979460265362 8.449415285741424 0 0 0
1759 45 1 8.97458645772549 19.881658883119385 5.8912865498769955 0 0 0
1760 45 1 10.2429387485679 20.077700911462138 6.750248590552293 0 0 0
1761 45 1 10.052053461163855 19.939354415847962 8.26226227082751 0 0 0
1762 45 1 11.435022647526543 20.090104908981257 8.908138423203596 0 0 0
1763 45 1 11.437869007820844 19.925420811362702 10.414508246515823 0 0 0
1764 45 1 12.712594438725663 20.28514720950967 11.160702660616481 0 0 0
1765 45 1 12.679731757390153 20.108911598556226 12.677872272101732 0 0 0
1766 45 1 14.026213288577003 20.342870323745473 13.329872903313053 0 0 0
1767 45 1 13.876254326225071 20.26309146101086 14.825833806171397 0 0 0
1768 45 1 15.218530932487312 20.267185402724017 15.551560520985893 0 0 0
1769 45 1 15.103055960098468 20.114430674903964 17.07878304950088 0 0 0
8804 57 1 3.3855667281021935 15.878944064774847 10.307373918836287 0 0 0
1374 54 1 2.105088093763811 14.287824910976385 0.7012481576354201 0 0 1
1375 54 1 3.086127518187077 13.556488515104695 1.6731425101513968 0 0 1
3204 19 1 18.681712127531526 9.136503567144516 15.10722585617182 0 0 0
1980 45 1 8.268798313331049 20.178567739337964 2.024593201908885 0 0 0
1981 45 1 8.05241651138883 19.89650285697442 3.4948364192836276 0 0 0
1982 45 1 9.294434615486512 19.871791674776535 4.360008458268809 0 0 0
1983 14 1 6.752130529444229 22.528129177830557 8.179251112935143 0 0 0
1984 14 1 6.6316808174511275 22.482721225509067 9.68517294403821 0 0 0
1985 14 1 7.9734138411360815 22.47920730240086 10.429704401707557 0 0 0
1986 14 1 7.8957196480219745 22.283429870276056 11.931091790632546 0 0 0
1987 14 1 9.25268946254061 22.399726297986568 12.534899588698268 0 0 0
1988 14 1 9.267202406960354 22.26374135974443 14.065895267761372 0 0 0
1989 14 1 10.60854596467702 22.332482780407428 14.839413963456238 0 0 0
1990 14 1 10.623534925162282 22.10257019459192 16.38793953783167 0 0 0
1991 14 1 11.963949875243033 22.489470864321813 17.060031707567923 0 0 0
1992 14 1 11.829256468889131 22.289899519322844 18.57386354918281 0 0 0
1993 14 1 12.983622935522858 22.405283313146853 19.494250062416114 0 0 0
1994 14 1 12.573760756667726 22.371475828715564 20.94920548019865 0 0 0
5867 39 1 0.9023435911253945 11.908114358824541 23.441400793734744 0 0 0
846 8 1 11.477860671896405 9.368803637200102 18.898813508602107 0 0 0
2202 14 1 3.0593053530298264 22.969209552087523 2.8818697837890657 0 0 0
2203 14 1 4.284992162102065 22.546273913576282 3.6667175691430214 0 0 0
2204 14 1 4.189647922327 22.751504417714905 5.219588306272271 0 0 0
2205 14 1 5.49149458968786 22.494135522040317 5.91552008654856 0 0 0
2206 14 1 5.447379477147599 22.485064836509224 7.465866707457795 0 0 0
2286 14 1 8.820514923305167 24.359607926065937 5.651769395050632 0 0 0
2287 14 1 10.177582001763282 24.375821902404823 6.330770955199034 0 0 0
2288 14 1 10.07402521118584 24.300851867749813 7.858642061624414 0 0 0
2289 14 1 11.434237027966875 24.534507543490964 8.521412353764607 0 0 0
2290 14 1 11.362600895517678 24.57802417870962 10.067109067232773 0 0 0
2291 14 1 12.693878247661242 24.82100690343548 10.726315555778765 0 0 0
2292 14 1 12.642127864827046 24.543570266803474 12.230278390761532 0 0 0
2293 14 1 13.953989509606657 24.873455919270494 12.899910679859524 0 0 0
2294 14 1 13.854219227060973 24.727558898381773 14.423223146186347 0 0 0
2295 14 1 15.205654437509944 24.783088082312887 15.151992329511513 0 0 0
2296 14 1 14.963205969213327 24.72645892022052 16.668781089902783 0 0 0
824 5 1 6.737282001254059 6.64009054651365 1.6747459056260332 0 0 1
8514 60 1 1.9912791910230663 13.841244813398294 18.428879250487793 0 0 0
2370 16 1 12.659961284022957 0.20164197131402695 2.09363788316138 0 0 0
8135 39 1 3.910515445069307 9.056081969983458 23.000181495670347 0 0 0
2362 14 1 7.765440766481998 24.23786823885034 1.8526643641565783 0 0 0
2363 14 1 7.605699830118326 24.502260494740074 3.381519943599993 0 0 0
2364 14 1 8.917637971501156 24.484302529667946 4.135847401577041 0 0 0
1467 11 1 17.947749444364064 15.832362557115983 23.403243823353474 0 0 0
2200 14 1 1.9385984047885783 22.916728710119937 0.6870913568940132 0 0 0
4416 28 1 17.961689747202296 22.268633905720545 13.163626191483075 0 0 0
7915 31 1 9.750765254768428 7.6603327698351205 23.278166486513662 0 0 0
4643 22 1 16.044000674214246 24.661569690696705 1.9164527593351253 0 0 0
3190 4 1 15.071870922510474 7.384280502472509 0.11463424549062172 0 0 1
7299 48 1 0.5182404899849177 1.0772563813149518 12.880858351907372 0 0 0
217 17 1 4.425315613783302 26.609001846618735 3.8459118859011157 0 -1 1
394 57 1 12.310083660879334 5.028815209651348 20.847055009843313 0 0 0
1130 35 1 6.626626259114475 11.149559686610637 1.2461535993352284 0 0 1
2373 16 1 13.655232506286733 26.51815991585695 5.859445048580351 0 -1 0
1751 62 1 1.9865647445535857 18.90391360976216 0.6980279511217666 0 0 1
2374 16 1 15.030330802331312 26.511505217446498 6.5592110319535815 0 -1 0
4417 28 1 18.709134045353117 23.116191774155944 14.212446098289261 0 0 0
2813 9 1 14.213370511953125 4.4016205968331 4.868036770165889 0 0 0
2814 9 1 14.009900251191192 4.057192941175629 6.3054442360224945 0 0 0
2815 9 1 15.193470354201855 4.695721676546155 7.066293405960185 0 0 0
2816 9 1 15.169791458426559 4.527868613529631 8.598697313260814 0 0 0
2817 9 1 16.49982954385542 4.440825403938145 9.295934406560603 0 0 0
2818 9 1 16.318476411030748 4.454279582367116 10.772050868946652 0 0 0
7301 48 1 1.5550716774704894 1.0309420211984408 15.284313234237784 0 0 0
2375 16 1 15.043583994307953 26.570825171101227 8.073085106357095 0 -1 0
8421 2 1 1.0956083640872785 11.618345016991567 5.689523031520795 0 0 0
2891 9 1 12.988194729673365 4.1151609713999315 3.9680380798607304 0 0 0
9285 61 1 3.2568460522528615 22.90230613025152 20.189287799336046 0 0 0
1208 9 1 8.832267987027773 11.397635916699219 5.820580090897985 0 0 0
2378 16 1 17.367298827144243 0.021728662435300652 11.180009767744973 0 0 0
1144 9 1 18.94375326867168 11.800685435324622 22.278300980968297 0 0 0
3195 19 1 13.905328023249426 9.154302017642149 4.612499316871736 0 0 0
3196 19 1 13.975303160572548 9.370414689401771 6.128143753658802 0 0 0
3197 19 1 15.347564227041111 9.233639976360417 6.6948461668523205 0 0 0
3198 19 1 15.23959145900816 9.469949467081 8.24689816983812 0 0 0
3199 19 1 16.42470617791103 9.042795683788135 9.08292818962628 0 0 0
3200 19 1 16.29900919162507 8.94957054007614 10.622713437314856 0 0 0
3201 19 1 17.69457372835966 8.842194726234387 11.250992884366065 0 0 0
2298 14 1 16.239974794826384 24.621771872096275 18.85910179876453 0 0 0
8132 39 1 2.834138553047877 9.706355542288815 19.176395838622522 0 0 0
3721 22 1 12.667618150948707 13.546749056661671 3.651310160638618 0 0 0
8422 2 1 1.1581389300132483 11.097750706607785 7.134151840521604 0 0 0
315 6 1 15.762252296296197 1.9851367212464175 17.865937856447683 0 0 0
7302 48 1 1.3545918513145083 0.5371296097626785 16.678035482948076 0 0 0
2361 14 1 6.503193082128208 24.372942576095898 1.0406863560499484 0 0 0
3643 22 1 13.806650162460727 13.040943102785292 4.520310431832493 0 0 0
3644 22 1 13.800623906067976 13.686807253307839 5.938516352655691 0 0 0
3645 22 1 14.954004975897643 13.18550324501418 6.768545398206438 0 0 0
3646 22 1 14.905607918583287 13.622381121124386 8.225143998196469 0 0 0
3647 22 1 16.02442540798608 13.116757531236473 9.088867857738313 0 0 0
3648 22 1 15.969642718310125 13.49875021249575 10.534948074004607 0 0 0
3803 24 1 17.43223300971391 15.160315811324407 4.5634370771318755 0 0 0
1223 61 1 13.681383390542626 14.06663779963871 23.355994713766712 0 0 0
1132 35 1 7.532820260671204 11.51012759983703 3.6325984946732843 0 0 1
2819 9 1 17.65943648420277 4.273109335616992 11.532205009152124 0 0 0
1772 45 1 17.664472415564244 20.574574711562835 20.022631228442588 0 0 0
8802 57 1 2.0789010791931553 15.895475121791833 8.016630970158129 0 0 0
317 6 1 16.960896709780894 2.153357881385014 20.122100907653856 0 0 0
847 8 1 12.748736833197423 9.080220931233246 19.73895571816885 0 0 0
6251 52 1 0.9695043219522171 16.213578297991152 23.51205274814054 0 0 0
4026 28 1 13.214812544770218 17.728291392344723 2.2359317308899658 0 0 0
4027 28 1 13.047324766251387 17.902538704684705 3.7008466468620895 0 0 0
4028 28 1 14.170923953787149 17.3988632743559 4.566771522806375 0 0 0
4029 28 1 13.942195609236123 17.69132447664465 6.088902088019312 0 0 0
4030 28 1 15.17300631860693 17.4004594553116 6.908315111017081 0 0 0
4031 28 1 14.975973428283481 17.769888959474244 8.364928523854333 0 0 0
3650 22 1 17.260070918903036 13.648363855689754 12.591304562328096 0 0 0
1532 11 1 9.770926807423125 15.608193381095457 7.7072582582242 0 0 0
7692 50 1 2.811495489956297 4.50433195295318 19.960503476684465 0 0 0
3719 22 1 11.357805629984123 13.56274227060266 1.4272362095335727 0 0 0
600 57 1 1.8902819952657346 4.7706530977360995 0.7129415901285074 0 0 0
7303 48 1 2.495069116639489 0.7127841289720188 17.630699401428732 0 0 0
7914 31 1 8.51632653233579 7.592037505881978 22.369114264148795 0 0 0
4407 28 1 12.83036605321837 22.54349891194974 2.863662835780383 0 0 0
4408 28 1 13.03798352870618 21.798830974453153 4.199311476588802 0 0 0
4409 28 1 13.898016524587948 22.593573538515095 5.200940275761971 0 0 0
4410 28 1 14.213655272284909 21.829333968341516 6.526001608648659 0 0 0
4411 28 1 14.975501604024728 22.608456172670667 7.5287323370870665 0 0 0
4412 28 1 15.334123244924932 21.932353805882638 8.837971860871022 0 0 0
4413 28 1 16.217712627230725 22.81825341791091 9.732391527700749 0 0 0
3652 22 1 18.63529629907154 13.509791786196995 14.808609644503115 0 0 0
2201 14 1 3.1760042876988512 22.554621286159186 1.4231070034168576 0 0 0
8131 39 1 1.60244233503202 9.194975953934833 18.343121192357778 0 0 0
2820 9 1 17.428198646552666 4.286376264748862 13.037517388294471 0 0 0
9284 61 1 3.239970558190798 23.253333305286905 18.676026138472945 0 0 0
1771 45 1 16.357244922648952 20.226089545901313 19.314116087734643 0 0 0
1773 45 1 17.489944168443344 20.62190197511741 21.51997748725546 0 0 0
1453 10 1 7.258119953963451 15.630947545717202 1.935400466665552 0 0 1
2372 16 1 13.843527469525945 26.504792952031814 4.313657987415929 0 -1 0
1454 10 1 7.394513541594018 15.985415778976204 3.393006084448565 0 0 1
4485 28 1 11.917407458056 21.769163578302667 1.9078388836223408 0 0 0
9509 51 1 8.136888543359268 25.34405054222675 20.776024883349088 0 0 0
4032 28 1 16.103254693511335 17.276508367082936 9.25009354087868 0 0 0
3801 24 1 16.35703949081582 15.13728655210866 2.1649902085721977 0 0 0
2890 9 1 12.96852588132556 4.556375434379419 2.5003131323762866 0 0 0
7603 48 1 8.668296034900465 3.295979225699732 23.10805788212546 0 0 0
1133 35 1 8.870792841048246 11.553255756743571 4.285507711641031 0 0 1
3194 19 1 17.6132451064997 6.930413015441473 4.449672428242524 0 0 0
4035 28 1 17.52706499851897 18.03919261417315 12.916825437584242 0 0 0
7304 48 1 2.243483009120975 0.42858042072811386 19.09493718673374 0 0 0
7305 48 1 3.47512557806902 0.6968263210924724 19.919481457481123 0 0 0
7306 48 1 3.3278547896381143 0.3969087271428861 21.396345545031362 0 0 0
7913 31 1 8.87499953150525 7.309752197144355 20.88180121135258 0 0 0
8803 57 1 2.140632579569919 16.22652001667782 9.492770094924968 0 0 0
3419 20 1 16.575997767530065 10.876529763884907 1.9286828945747956 0 0 0
7593 48 1 3.5302929863914763 3.2181463869443925 11.332719114370668 0 0 0
7594 48 1 4.800082112819824 2.8219013328498614 12.093660679046119 0 0 0
7595 48 1 4.676174091395146 3.186227761570824 13.558695953901369 0 0 0
7596 48 1 5.857298348053709 2.763682371429452 14.41340813605869 0 0 0
7597 48 1 5.611996807739453 2.957421327209802 15.887758878319275 0 0 0
7598 48 1 6.812186486865963 2.922259723523613 16.733148623088393 0 0 0
7599 48 1 6.541016415724065 2.9239441455604234 18.286799179132693 0 0 0
7600 48 1 7.763718440422517 3.0243939892457687 19.270043941216322 0 0 0
7601 48 1 7.467530918717111 3.197774351257452 20.768240577895263 0 0 0
7602 48 1 8.69168538663614 2.910945810207639 21.623420377510502 0 0 0
3651 22 1 18.56952136373721 13.262287034918197 13.27460932743774 0 0 0
2593 1 1 16.525411139578143 2.1162385265680417 0.7083362907358863 0 0 0
7694 50 1 3.838049855717096 4.730885412371505 22.33077977135725 0 0 0
4484 28 1 11.867404941039023 22.40186642501594 0.5590058463464764 0 0 0
3191 4 1 16.134978575852497 6.631516485905473 0.7478285427015219 0 0 1
2297 14 1 16.29641036412134 24.83691645418279 17.358264884064464 0 0 0
2821 9 1 18.643369684745267 4.6894019830979445 13.873797553250103 0 0 0
2380 16 1 18.443770823629084 0.18746703550114494 13.554351349857576 0 0 0
1466 11 1 17.890352529494542 15.396047902790603 21.955700520749502 0 0 0
4036 28 1 18.76244765463686 17.513873153008017 13.640923923843834 0 0 0
3193 4 1 17.48540934435489 6.408889646084077 2.9998055229891736 0 0 1
9185 60 1 0.6626023482323246 20.727769576868695 5.83471031678427 0 0 0
8434 2 1 7.737971072047937 11.525542609377089 20.80343531696491 0 0 0
8133 39 1 2.648081321066032 9.287222129944603 20.67624171303452 0 0 0
7903 31 1 2.9953597770739835 7.092290223087613 9.40405237753485 0 0 0
7904 31 1 2.941126674511182 7.213101162204394 10.88373674875449 0 0 0
7905 31 1 4.252867058977226 7.0707268965768115 11.602280140265767 0 0 0
7906 31 1 4.041299848213812 6.909921430037727 13.133854408551281 0 0 0
7907 31 1 5.265162217043278 7.023358062864018 14.005204466763058 0 0 0
7908 31 1 5.057264620153568 7.233013846921565 15.518867368210728 0 0 0
7909 31 1 6.446020965698308 7.4013510145199435 16.249345883850896 0 0 0
7910 31 1 6.3380721768916235 7.45764950201491 17.818555871076626 0 0 0
7911 31 1 7.77221998982071 7.477239990016556 18.438383611760475 0 0 0
7912 31 1 7.624823590336791 7.322559913986816 19.97561393458309 0 0 0
844 8 1 10.190386210080785 9.457287543320263 16.620319578900375 0 0 0
1131 35 1 7.717205749955707 11.782611086255162 2.100762167175854 0 0 1
9288 61 1 5.788908800778671 23.050690916204754 23.15317900322098 0 0 0
7689 50 1 1.6994754687290659 5.037659726208186 16.311092571179778 0 0 0
618 6 1 17.245497754619183 7.323733268751872 21.762238798098295 0 0 0
7693 50 1 3.636556530424976 5.27082548490802 20.942405905755486 0 0 0
216 17 1 3.147221343134911 0.33740006513107706 3.133474327280933 0 0 1
2595 1 1 17.4970722858326 2.273270137915514 3.094582373308073 0 0 0
8134 39 1 3.772694639394906 9.748573393691604 21.625514079440496 0 0 0
4024 24 1 16.608909016454447 15.383405420162273 0.7327103416802276 0 0 0
8130 39 1 1.726668000108293 9.61988112263256 16.87286350425988 0 0 0
9287 61 1 4.626557891042748 22.47846893450549 22.319762076371067 0 0 0
4722 29 1 16.380939842333067 24.525345388679263 0.37928611792321976 0 0 1
3192 4 1 16.30762403844167 7.002386167995902 2.236993491057186 0 0 1
8423 2 1 2.2959957293483866 11.574367314439371 8.04346124562202 0 0 0
8424 2 1 2.1131701238113147 11.058874516695063 9.48913805450547 0 0 0
8425 2 1 3.2544864507234195 11.57353134681547 10.352798315954209 0 0 0
8426 2 1 3.2369613945818316 10.803307611376294 11.671437112524634 0 0 0
8427 2 1 4.330239495145482 11.321333884508677 12.681051794207576 0 0 0
8428 2 1 4.2427166406434065 10.86909617152342 14.14357535842281 0 0 0
8429 2 1 5.373385663764239 11.582555128943973 14.862065532659285 0 0 0
8430 2 1 5.3417695282751545 11.146848820689168 16.34634558872834 0 0 0
8431 2 1 6.538473891310545 11.787028134551987 17.08318862767183 0 0 0
8432 2 1 6.493252774788213 11.526639550751442 18.59532128736215 0 0 0
214 17 1 2.0272512319281657 0.5337581229541197 0.8709343875090981 0 0 1
9496 51 1 1.3160403156814948 25.0459169716633 5.768595668246808 0 0 0
7591 48 1 2.323159370653165 3.18934939518249 8.995025483255786 0 0 0
8513 60 1 2.2042003953522555 13.81938065232657 16.91425895000122 0 0 0
9286 61 1 4.473514300046473 23.255790847460894 20.99591904163259 0 0 0
10 2 1 13.804640899364243 0.6168638422871521 23.347133136040025 0 0 0
1547 12 1 13.727552914651934 18.020704583801574 23.049344457477797 0 0 0
2299 14 1 17.645805657928236 24.630338172294092 19.496523541358393 0 0 0
3720 22 1 12.683865488327212 13.161899833968967 2.1545244583792376 0 0 0
2594 1 1 16.226958624910985 2.35065253720936 2.218397664100085 0 0 0
8894 44 1 0.6468020395720573 18.415359301715306 13.97875578017704 0 0 0
3642 20 1 16.51958680888762 11.223506750084505 0.4165011591824699 0 0 0
9283 61 1 2.0226061832251228 22.575352210599455 17.94058401540129 0 0 0
318 6 1 17.140734849934745 2.8131421421717304 21.492216011014932 0 0 0
1222 61 1 13.713425564647574 13.432174361136488 21.949351958298156 0 0 0
8806 57 1 4.1345695905936095 15.861987426501825 12.82519971102356 0 0 0
8807 57 1 4.265643655784548 16.642102701572885 14.082930899471307 0 0 0
8808 57 1 5.097845232018674 15.817119261769838 15.067183293189073 0 0 0
8809 57 1 5.059121564734261 16.25068310704465 16.502563590341502 0 0 0
8810 57 1 6.2541374734666695 15.704313447003207 17.22016810684381 0 0 0
8811 57 1 6.382742511922638 16.254903553833348 18.635094538412986 0 0 0
8812 57 1 7.683935616491048 15.95331123149299 19.35935575555205 0 0 0
8813 57 1 7.745601035388088 16.373897018908405 20.84621932164724 0 0 0
8814 57 1 8.941513922715854 15.877081032775175 21.585397479021125 0 0 0
2376 16 1 16.334565066073377 26.483011395472758 8.878883258466152 0 -1 0
2369 16 1 11.381404376874782 0.37296897664473755 1.3281711818546211 0 0 0
8901 44 1 3.9720790978624363 18.266166440315825 22.15485166518008 0 0 0
4415 28 1 17.515652744001432 23.004726315316177 11.931195190299944 0 0 0
319 6 1 18.183172119315792 2.2415408826346384 22.47058823982998 0 0 0
9187 60 1 1.761213819981518 20.626080516507358 8.102378539204674 0 0 0
9499 51 1 2.3659821608751197 25.032843361078825 9.617109619565861 0 0 0
8435 2 1 9.112330113661974 11.68531441013266 21.49939816103233 0 0 0