LAMMPS data file via write_data, version 23 Jun 2022, timestep = 11112117

8487 atoms
2 atom types
8471 bonds
3 bond types
8455 angles
3 angle types
8439 dihedrals
3 dihedral types

0 36.89775039 xlo xhi
0 26.67072 ylo yhi
26.128732940816946 210.62287145920376 zlo zhi
0 5.8045873134823 0 xy xz yz

Masses

1 14
2 15

Pair Coeffs # lj/cut/omp

1 0.0914 3.95
2 0.1947 3.75

Bond Coeffs # harmonic/omp

1 449.5 1.53
2 449.5 1.53
3 449.5 1.53

Angle Coeffs # harmonic/omp

1 62.0967 114
2 62.0967 114
3 62.0967 114

Dihedral Coeffs # opls/omp

1 1.411 -0.271 3.145 0
2 1.411 -0.271 3.145 0
3 1.411 -0.271 3.145 0

Atoms # molecular

1 25 1 3.946847486944569 25.934525406686948 28.345986412199508 0 -1 0
2 25 1 4.724384758242646 0.147164339865985 29.391462343762445 0 0 0
3 25 1 5.40476279998329 26.05586650184034 30.547802123700613 0 -1 0
4 25 1 6.196722011612377 0.2943858241208588 31.466021832699163 0 0 0
5 25 1 7.093430228166991 26.09770166592093 32.34793376755221 0 -1 0
4263 26 1 15.323994437745357 22.428778532686877 30.600254458030346 0 0 1
979 6 1 16.514326029727446 10.522205617061232 38.44410002994584 0 0 0
2760 18 1 11.870589831640846 26.06635036119641 27.0787174490185 0 -1 0
3067 21 1 18.27564049447048 6.14955975919979 28.977965381882377 0 0 0
8220 63 1 1.3351663020897953 19.61470890130175 30.342841313730577 1 0 1
13 25 1 13.347834504287233 25.833752884841097 40.33637054553539 0 -1 0
3454 27 1 14.347950049749114 12.399888505855207 29.987383246396377 0 0 0
7 25 1 8.703190828174131 26.095114995750432 34.27064540839267 0 -1 0
1412 15 1 2.276475757570325 12.70397321292485 26.31097514065997 0 0 0
1640 9 1 8.685202185912404 14.924382980568335 28.465506877550574 0 0 0
298 1 1 10.2245461305745 1.1991474463310954 30.298045504913635 0 0 0
7941 62 1 6.015025258169031 15.180222616619133 36.68755228040966 0 0 0
7164 6 1 2.3250097950124715 6.360175058622158 32.66748284317092 0 0 0
8261 53 1 9.791369790231913 20.33058800662977 41.695578367537735 0 0 0
270 1 1 17.404710680069087 2.149298516586475 39.323738203756186 0 0 0
8252 53 1 2.9275999628351927 19.64123955640784 32.37545999901637 1 0 0
2321 17 1 18.537670757850023 24.17166711131967 39.96228552359453 0 0 0
1413 15 1 3.1868404959730556 13.504422460901004 27.207669687907075 0 0 0
262 1 1 10.897734648742484 2.073281448087623 31.381696110233747 0 0 0
263 1 1 11.634947222768742 1.2759587820757348 32.45347442381809 0 0 0
264 1 1 12.26686578611892 2.1647867878694997 33.47832376112346 0 0 0
265 1 1 13.36802108776914 1.464905363585346 34.22356987888954 0 0 0
266 1 1 13.929351848389707 2.1473629328958967 35.393568967166985 0 0 0
267 1 1 14.84500592549454 1.2786265270429873 36.26603909054028 0 0 0
268 1 1 15.704547767959138 2.0936961764653232 37.28281328058142 0 0 0
981 6 1 18.15261295215237 10.609946252166145 40.33339724172902 0 0 0
966 9 1 2.3190643684275556 8.459442913543846 26.70681481703001 0 0 0
3452 27 1 12.671515664057647 12.507018537937675 28.026095508205245 0 0 0
7162 6 1 0.9512818089918704 6.666122018682573 30.582000468826628 0 0 0
7165 6 1 3.69880711282114 6.185033591968201 33.17990009499112 0 0 0
8306 11 1 4.521066178538529 22.135816435585166 40.203133255481134 0 0 0
2088 13 1 8.743292739110387 18.93007008875487 28.357264365166742 0 0 0
4260 26 1 13.170325314033386 21.294896159910238 27.57624558346569 0 0 1
8012 43 1 4.562314178197153 17.132521065236265 40.86078438547426 0 0 0
4259 26 1 11.928981758450249 21.938236481444996 26.893889935094528 0 0 1
3059 20 1 11.895118518221663 3.9613169162518025 27.196435018211236 0 0 1
299 2 1 8.4106693228717 4.6699555451361885 33.38984434098998 0 0 0
300 2 1 8.554403356543755 4.178674036742589 34.79448953891512 0 0 0
301 2 1 9.764845883860916 4.753208644030744 35.52201303978291 0 0 0
302 2 1 10.357123601732717 3.905460573915678 36.65590733928008 0 0 0
303 2 1 11.462775622237169 4.677800113950458 37.3203762068148 0 0 0
304 2 1 12.25540718432293 3.8057841113766853 38.233434540373196 0 0 0
305 2 1 13.124061561661613 4.527178529377879 39.30074310583639 0 0 0
3671 28 1 17.324071329037633 14.466290061028102 27.940061202724895 0 0 0
8302 11 1 1.3592904771311083 22.5211874753926 36.21828485037147 0 0 0
4187 49 1 17.36504184529465 18.75346361161979 27.78333375406 0 0 1
1653 10 1 16.062418897682086 17.89370209553536 43.09001482732623 0 0 0
517 2 1 3.7257218832275405 4.457538903873492 27.32885371997338 0 0 0
8455 64 1 2.955921928982694 24.12826456516807 32.53475070634532 0 0 0
1193 6 1 9.101494428516425 10.545256344234142 28.287000015980567 0 0 0
737 4 1 7.96840616640331 6.656598927283471 27.513384980298525 0 0 1
3456 27 1 15.71409276769276 12.412287979444775 32.19501102827803 0 0 0
2985 55 1 17.689338745668103 0.9891279536300579 27.994491005436217 0 0 1
3060 20 1 13.059339303503187 3.30635975885242 27.91887442118363 0 0 1
3372 36 1 17.18552412033077 10.041353329450892 27.931793175366987 0 0 0
519 2 1 5.368587997885275 4.394713909611593 29.278821964165246 0 0 0
520 2 1 5.88847971617553 3.8351258234152543 30.583100625947555 0 0 0
521 2 1 6.9783049330506515 4.559574090680679 31.311514560773407 0 0 0
522 2 1 7.1839239512656095 4.009084754278292 32.68054697676794 0 0 0
523 2 1 15.562901633658917 6.9804288056006 37.7080589321244 0 0 0
524 2 1 16.443659375791135 6.177097952419183 38.57442910655277 0 0 0
525 2 1 17.259038134501672 6.902568893210576 39.57311253220522 0 0 0
3066 21 1 17.6515210312282 5.343324019827229 27.84873258205258 0 0 0
6238 48 1 1.9540869108735235 19.125189934751145 43.63810872138738 1 0 0
3147 23 1 12.889337375609529 8.413569318923042 27.303404712572355 0 0 0
3370 23 1 12.102693354618273 7.48082455744923 26.37443007594296 0 0 0
2988 19 1 16.699270716928527 4.094141949746055 33.167445679584 0 0 0
980 6 1 17.181802954268125 11.44042615736475 39.559915425960526 0 0 0
271 1 1 18.009652288745315 1.3319146492593579 40.45555535601686 0 0 0
6237 48 1 1.186291866218986 19.938394314209727 42.578509598347296 1 0 0
5174 12 1 0.6572701233314772 6.7345479711201275 42.61618616088974 1 0 0
2099 17 1 14.09250436044149 22.251117056462395 41.48305317433339 0 0 0
7936 62 1 2.3479036065053402 15.642252927423694 31.53990736831885 0 0 0
743 2 1 12.542305451548755 6.819260317187427 33.5932159538198 0 0 0
744 2 1 13.465024948433795 6.120894797537528 34.561845880195165 0 0 0
745 2 1 13.958268944091964 6.8970565536123285 35.77901417762638 0 0 0
746 2 1 14.914852945375056 6.159967113116926 36.617143866402245 0 0 0
747 9 1 6.89297097210041 8.741664129176796 31.140928459934635 0 0 0
748 9 1 6.904897435580981 8.350128362149555 32.643355453870306 0 0 0
749 9 1 8.290356205520277 8.265918556735853 33.20489787992255 0 0 0
750 9 1 8.383790451208725 8.374072173626935 34.7180581314102 0 0 0
751 9 1 9.753238569442894 8.738759397184761 35.362007799409426 0 0 0
752 9 1 9.811444964526363 8.531160383193852 36.854507259203984 0 0 0
753 9 1 11.056851582427235 9.047430560266305 37.53644064044459 0 0 0
754 9 1 11.537580548580118 8.332798436220573 38.72773661499505 0 0 0
1862 10 1 3.688767414601284 17.346938522612056 28.465887376174386 0 0 0
1652 10 1 14.95592092438178 17.364313580748295 42.25730612127792 0 0 0
8014 43 1 6.159595422342429 17.296293617631118 43.02482341292355 0 0 0
294 1 1 6.799510386706238 1.2745282091146783 26.339589300710866 0 0 0
5175 12 1 1.9464421951282391 5.9994837286497 43.0967499585661 1 0 0
8259 53 1 8.769752995218447 20.38760960188578 39.272884308250774 0 0 0
7689 60 1 6.717313050427914 12.805526652728808 42.71406476877043 0 0 0
516 2 1 2.4996262264226514 3.957597272939233 26.56562511822916 0 0 0
8308 11 1 6.221152694417208 22.264680643602475 42.24113014305408 0 0 0
6239 48 1 3.027729654483954 19.831264398656415 44.47886940648135 0 0 0
8219 63 1 0.4126068688388326 20.44291570012348 29.475003129853054 1 0 1
967 9 1 3.805702502899594 8.710749312787907 27.096514765982537 0 0 0
968 9 1 3.9738735057409666 8.29268223766144 28.581881717952285 0 0 0
969 9 1 5.337554655740276 8.64777788917609 29.02848337659148 0 0 0
970 9 1 5.5508687376949455 8.339222685568437 30.510159546168996 0 0 0
971 6 1 10.316350791136237 10.498905638449054 30.54224901981184 0 0 0
972 6 1 10.777644473559773 11.278568712056073 31.716759539833177 0 0 0
973 6 1 11.440157160374472 10.375055998545813 32.76022384240069 0 0 0
974 6 1 12.174239477236362 11.1703831652392 33.8553936826029 0 0 0
975 6 1 13.179018611929525 10.465998109081985 34.75211622232731 0 0 0
976 6 1 13.81356878234893 11.389880498859947 35.78021988984756 0 0 0
8304 11 1 2.867370924113527 22.418000820503032 38.33173240461325 0 0 0
7682 60 1 1.0074432353360405 13.507887140144573 36.039617427258364 1 0 0
7161 6 1 0.5963395028111104 6.213245001183255 29.14966214406361 0 0 0
7083 30 1 1.2378689218628793 3.914905404680701 37.32036129680726 0 0 0
7385 56 1 2.2864433103819133 9.16917602206253 38.006661924271185 1 0 0
4227 22 1 18.607057090204133 22.776621941581194 34.746255105633445 0 0 0
9 25 1 10.314954639670127 26.129637938120958 36.25952175553291 0 -1 0
3451 27 1 12.05519043023 13.283053992839173 26.861080134956413 0 0 0
978 6 1 15.402565510319045 11.350652195023702 37.74984212862458 0 0 0
6537 39 1 1.4415487042053843 24.4471901823645 42.40410553471052 0 0 0
741 4 1 11.096834776147444 6.64406479394862 31.36356285122408 0 0 1
1194 6 1 9.322459867329112 11.246037665798045 29.636787369979793 0 0 0
1195 15 1 7.946470069312521 13.527679752990272 33.29252029779167 0 0 0
1196 15 1 8.412341329471314 12.864161389271517 34.63090323121277 0 0 0
1197 15 1 9.630407223904427 13.55359378617217 35.296040223097116 0 0 0
1198 15 1 10.22363476146193 12.840906320625107 36.53554521174874 0 0 0
1199 15 1 11.388453961636513 13.51558635313483 37.264582015143176 0 0 0
1200 15 1 11.862720793037544 12.775120012684685 38.54780958366133 0 0 0
1201 15 1 12.805037136819534 13.691402782666485 39.32091446620397 0 0 0
1202 15 1 13.194350104955213 12.972952273809321 40.614195414704206 0 0 0
1203 15 1 14.243964365533353 13.749271747815694 41.35779873299602 0 0 0
1204 15 1 14.87011190605841 12.77978935645258 42.367043057370225 0 0 0
7390 56 1 5.839141415979649 8.39582142277708 43.28448989455263 0 0 0
269 1 1 16.698524839977374 1.3414230519643382 38.21606351912449 0 0 0
7686 60 1 4.09997554283667 13.721465395969886 39.913299491761734 0 0 0
7163 6 1 2.287007584810329 6.167798757469059 31.143828820932196 0 0 0
1874 13 1 16.703003067018184 19.403998005071156 37.99384065862343 0 0 0
3894 13 1 13.883632816763498 17.633169421280293 28.9558309680101 0 0 0
7640 58 1 2.1537918532299725 11.028744909705138 31.579984543151696 0 0 0
8309 11 1 6.535121920634186 21.623477114694207 43.510475632587195 0 0 0
7391 56 1 7.015556806578832 8.99931996256595 44.03293942795696 0 0 0
1415 15 1 4.81971022904188 13.411707456339741 29.207947992083913 0 0 0
1416 15 1 5.157815244997329 12.806922816296787 30.582280489682482 0 0 0
1417 15 1 6.495004878977003 13.40986933313283 31.04307255574952 0 0 0
1418 15 1 7.001459590234901 12.776180298969244 32.35945226142036 0 0 0
1419 9 1 11.001246412344386 15.463018091131163 31.6120643351341 0 0 0
1420 9 1 11.961709855983239 14.652716068701505 32.54582727287438 0 0 0
1421 9 1 12.987769263163512 15.473330841887115 33.27818436050565 0 0 0
1422 9 1 13.464520187668546 15.045881955349651 34.64142278022127 0 0 0
1423 9 1 14.567317159335737 15.850155253852185 35.33047449088694 0 0 0
1424 9 1 14.911654254496352 15.36471440119261 36.76903252055049 0 0 0
1425 9 1 16.33743844130473 15.712041238946863 37.20017807062256 0 0 0
1426 9 1 16.63342932707521 15.280290568533273 38.63248648852665 0 0 0
977 6 1 14.847019553211767 10.59717391552287 36.583739811229144 0 0 0
4262 26 1 14.847361958284495 21.501441443246467 29.554725096226683 0 0 1
6858 53 1 1.5324203255144875 1.8044571923943415 30.69523138590429 0 0 0
1205 15 1 15.814322083574105 13.581720383209237 43.286843538991384 0 0 0
2087 13 1 7.720275488183746 19.735071815854496 27.51071525428464 0 0 0
310 2 1 17.14666380560583 3.81951403535801 44.26571621529064 0 0 0
17 25 1 16.99850344407419 26.06217840842304 44.06154491929391 0 -1 0
7086 30 1 3.7487828833959598 4.6957999782028095 40.21194947996084 0 0 0
1641 9 1 9.2659948145342 15.66183357182706 29.641184064963156 0 0 0
1642 9 1 10.184287993139554 14.77458938952907 30.571856229495033 0 0 0
1643 10 1 8.153031031762568 17.984262160395314 33.03306243189198 0 0 0
1644 10 1 8.73572384710221 17.25787994848585 34.25988590254195 0 0 0
1645 10 1 10.014153354610915 17.762712865844048 34.88050918148969 0 0 0
1646 10 1 10.429581194212908 17.222823711889276 36.225459582720724 0 0 0
1647 10 1 11.657699373601682 17.963974590616452 36.90766284364759 0 0 0
1648 10 1 11.794774563569867 17.596137441573084 38.37727491591891 0 0 0
1649 10 1 13.106497757130228 18.10789970358627 38.97391337716036 0 0 0
1650 10 1 13.255125090405697 17.662163804939816 40.42355167339923 0 0 0
1651 10 1 14.67299729122158 18.116164161268653 40.87462146397105 0 0 0
6751 62 1 0.3256692172468454 26.121507356147486 35.0347072267364 0 -1 0
1427 9 1 18.136091174416514 15.364242920679716 39.03729166267015 0 0 0
2984 55 1 16.57959411009353 1.762221880420181 27.284024797618223 0 0 1
5934 44 1 1.1607117402510285 15.518066751316693 41.996115430657184 1 0 0
2320 17 1 17.16917569355085 23.74150718509955 39.4680064209605 0 0 0
2533 16 1 8.64793583172357 23.978102786937313 28.207369425717587 0 0 1
6 25 1 7.976475031433658 0.2585380759507385 33.244494086703334 0 0 0
7089 30 1 6.530505435544268 3.800124399616883 42.65018993984009 0 0 0
8303 11 1 2.0893026298374426 21.68107886046558 37.224544318744236 0 0 0
7688 60 1 5.665687729377242 13.63681167530767 41.955993506647 0 0 0
1863 10 1 4.950927394728877 18.035916587246373 29.059166814706536 0 0 0
1864 10 1 5.274880291142228 17.40449586210779 30.415618174527314 0 0 0
1865 10 1 6.403943033192427 18.140618978603737 31.12199776446169 0 0 0
1866 10 1 6.940171695900826 17.357805034535886 32.33723680090634 0 0 0
1867 13 1 11.046357314540709 20.243284535223186 31.066875190734837 0 0 0
1868 13 1 11.995556929996203 19.50562920291865 31.983244059935664 0 0 0
1869 13 1 12.5958150330099 20.339267207914016 33.10928977855791 0 0 0
1870 13 1 13.743401047432027 19.647085700505574 33.8936393590241 0 0 0
1871 13 1 14.250575162675354 20.37896328627454 35.19208285032958 0 0 0
1872 13 1 15.149176633829569 19.509404286189064 35.979522193863104 0 0 0
1873 13 1 16.056823702567197 20.29395251785234 36.933974795811636 0 0 0
739 4 1 9.58913086997203 6.61069844451809 29.325409280048966 0 0 1
6754 62 1 2.66034890611464 0.17102811004389498 38.21261810473521 0 0 0
307 2 1 14.603701317789216 4.680502068892044 41.22799804433953 0 0 0
7650 58 1 9.987260080002166 11.172225136422625 41.70744173982882 0 0 0
7943 62 1 7.7080924540601075 15.186770757894585 38.62742701104833 0 0 0
8460 64 1 6.787463889521127 24.81792413411713 37.572672498183735 0 0 0
3371 36 1 16.06435395022737 10.696547297593439 27.15757847701256 0 0 0
3458 27 1 17.395788804623606 12.576587437197311 34.108755601082294 0 0 0
7386 56 1 3.034509512862117 8.305513693282819 39.0382679154776 1 0 0
2089 13 1 9.218559384377372 19.892283765311618 29.358031008726083 0 0 0
2090 13 1 10.59886197611799 19.57028824422045 29.7921989657856 0 0 0
2091 17 1 7.960342133335691 22.356184883618905 33.53855656386379 0 0 0
2092 17 1 9.144063915212659 21.61063240321192 34.16126425388235 0 0 0
2093 17 1 9.663806397429584 22.37643481493896 35.39406538813008 0 0 0
2094 17 1 10.826085881994569 21.709214327118836 36.14668523718457 0 0 0
2095 17 1 11.209652454713884 22.496717760863216 37.35956604297312 0 0 0
2096 17 1 12.092524238333343 21.617182893016366 38.2447761367833 0 0 0
2097 17 1 12.537283758727488 22.300347059282707 39.52537177603486 0 0 0
2098 17 1 13.68091430312275 21.56726172680566 40.25544298184278 0 0 0
759 9 1 16.120247881262806 9.155877832477625 43.29962286173081 0 0 0
2322 17 1 18.73958430926458 23.90364519024111 41.450705464669284 0 0 0
8301 11 1 0.3851985530542809 21.714268531235298 35.273320459257604 0 0 0
1639 9 1 7.850328531603276 15.765545544477757 27.502941413334554 0 0 0
2990 19 1 18.18019070240763 4.000664447492659 35.28762816255477 0 0 0
4267 33 1 16.887798050944053 23.962277300823242 27.014236716421618 0 0 0
7642 58 1 3.807487399267547 11.029088430571967 33.53179254837634 0 0 0
8258 53 1 7.826702012453349 19.61881791971016 38.35763727354791 0 0 0
6857 53 1 0.5360768309324722 2.493896966828996 29.68842366139878 0 0 0
7639 58 1 1.3309586971208447 10.170777018687104 30.633951341217735 0 0 0
2310 17 1 4.178647232320814 21.48868017432614 28.40885823071998 0 0 0
2311 17 1 4.93240308031626 22.405408746907064 29.427269305542637 0 0 0
2312 17 1 5.792035791250821 21.700644978251667 30.424029076212896 0 0 0
2313 17 1 6.655465269524778 22.51330549654032 31.42148690517945 0 0 0
2314 17 1 7.5225930826015865 21.66259439779583 32.26681195599882 0 0 0
2315 17 1 13.72740893476098 24.214748009328115 34.06769822013553 0 0 0
2316 17 1 13.990782733556928 24.24094480511256 35.5643120903194 0 0 0
2317 17 1 15.4538814224186 24.303656328939542 36.03934990366788 0 0 0
2318 17 1 15.518513412231819 23.76107629358668 37.48894035577129 0 0 0
2319 17 1 16.763285015709585 24.26482614754268 38.137834872502985 0 0 0
7934 62 1 0.6399737467324398 15.652451652247262 29.45988527379797 1 0 0
4188 49 1 18.246032662829084 19.52967766083964 28.849859214688134 0 0 1
7651 58 1 10.520894328559608 10.425009409075516 42.90715119661054 0 0 0
3155 23 1 18.601597233832084 8.871853021568501 35.64960134534204 0 0 0
3929 13 1 12.221442683022676 17.742919235952602 26.984266718828763 0 0 0
4734 35 1 2.5777128584919855 2.5164193575039806 44.039778576059675 0 0 0
8 25 1 9.689229353110665 0.3030421805880743 35.07689310056115 0 0 0
8459 64 1 6.295002017990716 24.141920899923416 36.29605109611034 0 0 0
2309 17 1 3.139977531192859 22.264910664081114 27.555740670827145 0 0 0
2535 17 1 10.386845913077371 24.079944841870446 30.089017556578487 0 0 0
2536 17 1 10.50558496402565 24.31126655592226 31.597475085773702 0 0 0
2537 17 1 11.917056267871088 24.023873927758107 32.09047525508912 0 0 0
2538 17 1 12.258355807145477 24.40423343446961 33.5884674347445 0 0 0
3153 23 1 17.09295643924256 8.577447862032532 33.61245057101991 0 0 0
2540 18 1 14.920344990072344 26.21716223178678 31.069218157103474 0 -1 0
2541 18 1 16.308141703316117 25.99167135937697 31.61184192378191 0 -1 0
2987 19 1 16.182971935259733 3.2370673876672402 31.967862746746096 0 0 0
742 2 1 11.935096854919303 5.967318978190003 32.43286181268875 0 0 0
6760 62 1 7.661954769216299 0.19275237769894313 43.97517092906756 0 0 0
7942 62 1 7.076435856482254 15.922442922219338 37.4566279786215 0 0 0
1192 6 1 8.024294463378316 11.260845971988749 27.452084174051556 0 0 0
2761 18 1 13.28378275413027 26.079454574066943 27.62788707240147 0 -1 0
8453 64 1 1.20041168782806 23.770167501064183 30.562542396900337 1 0 0
1876 13 1 18.281715177305717 19.089062455700105 40.042869723494235 0 0 0
7649 58 1 9.061636498484482 10.332513698905112 40.87377018902919 0 0 0
738 4 1 8.698796167837001 5.784077913177236 28.421804095999263 0 0 1
6758 62 1 6.076551669495403 0.19112124224642532 42.17251535631989 0 0 0
5935 44 1 1.657922826265092 14.795290127487176 43.20248588179122 1 0 0
7389 56 1 5.282492049029837 9.074085355592622 42.09203879390526 0 0 0
756 9 1 13.12817581148568 8.546757180993405 40.76419368125592 0 0 0
3899 13 1 17.653337118291088 17.097925703025535 33.932555063181994 0 0 0
296 1 1 8.36973975392934 1.1919429333741476 28.378824801101366 0 0 0
5634 56 1 2.799647789070026 11.35774397739595 44.05816104615121 0 0 0
223 25 1 2.3890182730462666 25.906460219209954 26.229203805561028 0 -1 0
7940 62 1 5.2501078062194315 15.923459362626756 35.611027606970325 0 0 0
7690 60 1 7.071158694418714 13.352449315125995 44.09370501758569 0 0 0
3023 19 1 15.18547558328286 4.0487361577804215 31.15632836451595 0 0 0
7685 60 1 3.4450717255707337 12.875092742389098 38.829309431216274 1 0 0
7939 62 1 4.820511802948711 14.996396063988103 34.48033440556873 0 0 0
4225 22 1 17.000291486644144 22.657902126328324 32.69250537659072 0 0 0
8256 53 1 6.1913877815652905 19.690743057636336 36.387530501357894 0 0 0
16 25 1 16.033964232898946 0.08634015345824608 43.106311465781566 0 0 0
3148 23 1 13.564513795341275 7.635997945034556 28.481538323861148 0 0 0
3149 23 1 14.229338944944082 8.452920268732154 29.491200638894817 0 0 0
3150 23 1 14.971540500589612 7.5735636060915725 30.478132556111333 0 0 0
526 2 1 18.106368855120156 6.029937343992864 40.495150953675775 0 0 0
309 2 1 16.381229746698413 4.639055111700487 43.18176936260111 0 0 0
7648 58 1 8.282198523185984 11.145421327226323 39.76124818922543 0 0 0
6536 39 1 0.539798981113062 23.68966458070836 41.324404754924544 1 0 0
3459 27 1 18.571938729264765 13.304199354254644 34.83546138617089 0 0 0
1875 13 1 17.65021554833909 20.037411508645665 38.967727513739774 0 0 0
3453 27 1 13.66566759426278 13.313993978877644 28.923373324562693 0 0 0
308 2 1 15.554889114260543 3.8626496592421358 42.10077021804333 0 0 0
6759 62 1 7.13772025993563 26.085462405557553 42.76680527453698 0 -1 0
5633 56 1 1.7738709736565414 10.42410801799463 43.33133389725733 0 0 0
8452 64 1 0.1229251548405213 24.586659836981816 29.816889554785977 1 0 0
7383 56 1 0.9521938905049658 8.925118503668733 35.939339369216746 1 0 0
3457 27 1 16.82702773090065 13.254656023900235 32.88248173307417 0 0 0
3898 13 1 16.916417781301366 17.92138585654293 32.892476040547066 0 0 0
8465 64 1 10.667568854664779 23.830147367372735 42.59534017458492 0 0 0
6868 53 1 9.609480871531314 1.6063741717871614 40.09480523995872 0 0 0
6867 53 1 8.365692548385605 2.344443047859316 39.48118894715335 0 0 0
7645 58 1 6.035907986388497 10.50178816296816 36.63747145680453 0 0 0
3895 13 1 14.251895890280409 16.871127017175343 30.231203535871664 0 0 0
3154 23 1 18.0475761647611 7.924601496932714 34.578119554017775 0 0 0
7687 60 1 4.878427617177534 12.850819290003328 40.90909349435214 0 0 0
3065 21 1 16.764301087372175 6.221494211717756 27.025536953822606 0 0 0
8255 53 1 5.132047297048976 20.37384493698596 35.52842149529585 0 0 0
1414 15 1 3.696058148547664 12.770053913106661 28.422774181182813 0 0 0
1428 9 1 18.20001279208217 15.372215604098301 40.53005672299996 0 0 0
7684 60 1 2.6928772653659903 13.640308621904902 37.819640147078054 1 0 0
4268 33 1 17.808021659572454 23.29463029656812 28.10044846479149 0 0 0
3896 13 1 15.201738394703675 17.770068268209876 30.950614024860407 0 0 0
3897 13 1 16.11786933031573 16.976735050730202 31.926910931658128 0 0 0
7935 62 1 1.3003761804970118 15.010421371391443 30.633255656620854 1 0 0
7641 58 1 2.955306739315166 10.234835676040047 32.626198643411726 0 0 0
757 9 1 14.457109016494789 9.16646289718232 41.37226395214096 0 0 0
8262 53 1 10.647625248474604 19.413442314270235 42.5996150574655 0 0 0
758 9 1 14.881638913099284 8.59953387053195 42.67385262265547 0 0 0
7647 58 1 7.300847412914581 10.390388806908133 38.85009704057113 0 0 0
7082 30 1 0.7328311901502867 4.615456272891548 36.03630255694158 0 0 0
3021 19 1 13.450180731620168 3.9255808481266397 29.239269691566875 0 0 0
1861 10 1 3.2803944771324245 17.903892095205894 27.088729286797335 0 0 0
2539 18 1 14.678066269351907 25.97613584810947 29.58425294836871 0 -1 0
4226 22 1 18.018629880270403 21.90148091784467 33.62991760872259 0 0 0
10 25 1 11.455862635477054 0.09396630052690998 37.01738139625678 0 0 0
1860 10 1 2.327031240515183 17.07878566092836 26.329008462484023 0 0 0
8007 43 1 0.9801169668654572 18.131744642210396 35.599533223292426 0 0 0
2100 17 1 15.447323437219264 21.921822372893065 42.092473648215 0 0 0
306 2 1 13.90522902747692 3.71811088596528 40.30017941729907 0 0 0
7174 6 1 10.109217027807938 6.3552835880727 42.47391917443746 0 0 0
736 4 1 7.3074137995955555 5.870593051861055 26.418916221187832 0 0 1
297 1 1 9.318455920610267 2.0065896269503596 29.27723001471602 0 0 0
4733 35 1 1.8524510462163355 1.6333236365763761 43.028321157662916 1 0 0
14 25 1 14.24650139656691 26.621303425372798 41.332789245060454 0 -1 0
3152 23 1 16.40155783885315 7.747829100757621 32.4945560041939 0 0 0
8263 53 1 11.376620073536325 20.260758838694475 43.66635697360138 0 0 0
8008 43 1 1.6667803209652297 17.3242606304116 36.66624266251512 0 0 0
2101 17 1 15.831166834162538 22.430987122365526 43.51138883561367 0 0 0
8010 43 1 3.2023118631186964 17.38104250912926 38.65986615083596 0 0 0
8254 53 1 4.407247508444093 19.50669298442457 34.57634118391806 1 0 0
2102 17 1 16.993829581531188 21.69577363389625 44.22867151286639 0 0 0
3670 28 1 16.298418971187132 15.159113208601704 27.067381959995483 0 0 0
11 25 1 11.972707114525221 25.999678848437433 38.21848048107812 0 -1 0
6870 53 1 11.001339032499551 1.4705611913728602 42.28169344794766 0 0 0
7388 56 1 4.481390692224041 8.205080575844724 41.11328270391649 0 0 0
8307 11 1 5.198827151796965 21.447481346362306 41.39129210166844 0 0 0
3900 13 1 18.408199198576884 17.94519599394165 34.92654824406143 0 0 0
8462 64 1 8.44083117154718 24.787641525224874 39.49044705740161 0 0 0
4264 26 1 16.476072444547594 21.921901594753106 31.510346986669763 0 0 1
8257 53 1 6.791363444935686 20.438738294538794 37.53011979225628 0 0 0
7387 56 1 3.8416299212486367 9.115667969010325 40.05139462008832 1 0 0
8454 64 1 1.9012963665141775 24.70472046013858 31.580358086635318 1 0 0
7938 62 1 3.7766064949965705 15.704832945559465 33.628785772946785 0 0 0
8009 43 1 2.363017914667656 18.154387311751954 37.669000414236216 0 0 0
7171 6 1 7.806766399845486 5.82997851101285 39.33425525647479 0 0 0
295 1 1 7.591632898004786 2.039139676512015 27.414536946660736 0 0 0
7087 30 1 4.838378495591556 4.00123277814742 41.02507047062733 0 0 0
8461 64 1 7.8946188275035345 24.00959265071448 38.309897981153426 0 0 0
7947 62 1 10.367023409430548 15.049733634149717 43.03157618291766 0 0 0
2989 19 1 17.977409236383448 3.55058678394036 33.842215898960376 0 0 0
8305 11 1 3.394802021069058 21.497019260247665 39.408946259443155 0 0 0
7175 6 1 11.43319542402421 5.822675949758611 42.90935276117469 0 0 0
6871 53 1 11.405495746612901 2.2268492545699785 43.510828347224844 0 0 0
7945 62 1 9.258348926795843 15.157674577951822 40.71574803023713 0 0 0
224 25 1 3.0946433739023997 0.03351358177055644 27.280315197886992 0 0 0
8464 64 1 10.006536051696079 24.707124702135253 41.51784152840581 0 0 0
4261 26 1 13.727856268155683 22.123978982915244 28.728157611079777 0 0 1
8456 64 1 3.4958603636364733 24.954702047495978 33.69357262574342 0 0 0
6869 53 1 9.96674503141413 2.223253277411517 41.451905603728164 0 0 0
8466 64 1 11.617440209705096 24.441881754107165 43.50911883067981 0 0 0
6859 53 1 2.078516498086302 2.6503835576000156 31.885605625959936 0 0 0
6755 62 1 3.4818235097954533 26.06690718158495 39.33997608855044 0 -1 0
6756 62 1 4.351715274806705 0.22397721946092036 40.30260508978819 0 0 0
6757 62 1 5.113659784687495 26.117741570791853 41.27675172981799 0 -1 0
12 25 1 12.931686660683003 26.643994931109507 39.13315099960695 0 -1 0
8253 53 1 3.4261070580032644 20.36265983287021 33.69740696289717 1 0 0
2532 16 1 7.292346168788547 24.32004739666424 27.554342751140418 0 0 1
3022 19 1 14.512126262685975 3.1572523405940305 30.07890549892708 0 0 0
8457 64 1 4.577241648555678 24.063588233997294 34.42256194014857 0 0 0
7643 58 1 4.596729780249222 10.287073789403358 34.541207125318 0 0 0
2543 18 1 17.904439640561645 26.23754045420806 33.64287051436426 0 -1 0
7085 30 1 2.8854000106950064 3.8384621766732865 39.27532645239954 0 0 0
8260 53 1 9.404664558792348 19.629412158988423 40.4234725426753 0 0 0
740 4 1 10.492220124177999 5.820414780638698 30.213183571104523 0 0 1
3151 23 1 15.57536605245321 8.505786765825654 31.518845819241328 0 0 0
8013 43 1 5.465206432157253 17.95468780683965 41.817855598942145 0 0 0
7683 60 1 2.010830885495432 12.719477033015846 36.83721169425557 1 0 0
6860 53 1 2.9660369763867522 1.819106154169111 32.80783064210072 0 0 0
6861 53 1 3.5510396015692014 2.6953101125309735 33.81790280705023 0 0 0
6862 53 1 4.4544645804616 1.8714593439690086 34.80736363317951 0 0 0
6863 53 1 4.783160148406653 2.6405954929766136 36.06405558866004 0 0 0
6864 53 1 5.850584083289003 1.8671435828328595 36.77518653789589 0 0 0
6865 53 1 6.623883689723233 2.550814392653807 37.870701039801176 0 0 0
6866 53 1 7.652419889601379 1.581453144887956 38.43004592383608 0 0 0
3455 27 1 15.003016381322881 13.210899409491944 31.104477018914004 0 0 0
7646 58 1 6.695523512413246 11.339592636724863 37.80060632037684 0 0 0
3893 13 1 12.939449294218827 16.89432389112878 28.000640578560898 0 0 0
5176 12 1 2.3274144376945003 6.466901618262132 44.497941639616386 1 0 0
8458 64 1 5.093518224792373 24.9229188564935 35.62956348891953 0 0 0
7644 58 1 5.314279687908649 11.198790285544344 35.51230467970842 0 0 0
8011 43 1 4.151951319200568 18.07463112217764 39.66076356979129 0 0 0
8251 53 1 1.8165229372478258 20.327116562011966 31.669211824745645 1 0 0
2542 18 1 16.619294853326274 26.644420702254006 32.92171603204792 0 -1 0
6539 39 1 3.019030807247981 24.350861781692625 44.46379734975524 0 0 0
7172 6 1 8.232908101130839 6.405820264222633 40.690759653547225 0 0 0
6752 62 1 0.8795347946110561 0.21458438312912834 36.254251742568215 0 0 0
8015 43 1 7.200202417143412 18.177838213761124 43.79074181921972 0 0 0
7084 30 1 2.145528048254889 4.721216964658136 38.2116486983835 0 0 0
7944 62 1 8.476716539235863 16.01585952818658 39.685989939005566 0 0 0
755 9 1 12.5596235594117 9.160211048714638 39.449175687036615 0 0 0
8463 64 1 9.100812803177726 23.918066131169596 40.55917025602234 0 0 0
2534 17 1 8.978512685177138 24.42540531129076 29.62004358263479 0 0 0
6753 62 1 1.9411900789291594 26.12604805410535 37.09812816019699 0 -1 0
7088 30 1 5.560124305493969 4.80553471011319 42.0372274050425 0 0 0
7384 56 1 1.4816263987567935 8.234504230916485 37.14550080054438 1 0 0
15 25 1 15.320600172404225 25.86595432500099 42.0488479317432 0 -1 0
7937 62 1 3.0444118758325613 14.834945356746333 32.633723342325396 0 0 0
7166 6 1 3.7299526826707408 6.470281482436703 34.69159972060213 0 0 0
7167 6 1 5.079844456385328 6.15967410036948 35.23843653641512 0 0 0
7168 6 1 5.240225686731489 6.718714245585611 36.64393850794595 0 0 0
7169 6 1 6.49836784161626 6.053698740907286 37.22450654018259 0 0 0