LAMMPS data file via write_data, version 23 Jun 2022, timestep = 11111117

9706 atoms
2 atom types
9690 bonds
3 bond types
9674 angles
3 angle types
9658 dihedrals
3 dihedral types

0 36.89775039 xlo xhi
0 26.67072 ylo yhi
29.263010864054223 207.48859353592178 zlo zhi
0 5.607364897459351 0 xy xz yz

Masses

1 14
2 15

Pair Coeffs # lj/cut/omp

1 0.0914 3.95
2 0.1947 3.75

Bond Coeffs # harmonic/omp

1 449.5 1.53
2 449.5 1.53
3 449.5 1.53

Angle Coeffs # harmonic/omp

1 62.0967 114
2 62.0967 114
3 62.0967 114

Dihedral Coeffs # opls/omp

1 1.411 -0.271 3.145 0
2 1.411 -0.271 3.145 0
3 1.411 -0.271 3.145 0

Atoms # molecular

1 30 1 7.457162094469771 21.67472266641461 32.23986041688302 0 -1 0
2 30 1 6.924826100120101 22.577371537850265 33.359872216118575 0 -1 0
3 30 1 8.101035279841735 22.83635997570054 34.297798407991756 0 -1 0
4 30 1 7.657012246352154 23.67173101655488 35.50351485616628 0 -1 0
5 30 1 8.647068665660678 24.391803689276866 36.41108463718744 0 -1 0
6 30 1 7.9631080039723106 25.030005347406917 37.60914722058472 0 -1 0
7 30 1 9.020728036487471 25.69397437966992 38.52287401735384 0 -1 0
8 30 1 8.394534819183484 26.27359266944537 39.80345423632903 0 -1 0
9 30 1 9.379115637649788 0.366404072314286 40.6912373733006 0 0 0
10 30 1 10.713329793034564 26.307309735159624 40.5537099056496 0 -1 0
11 30 1 11.769478327929548 26.511128248472527 41.604139753615485 0 -1 0
12 30 1 12.801411967635996 25.409383716257565 41.7101538113038 0 -1 0
13 30 1 13.978843098882983 25.752757391935333 42.69281132316592 0 -1 0
7291 45 1 2.1569285903583704 0.16011912360344321 42.13068026145458 1 0 0
663 6 1 6.7044290810631715 0.5173612249207815 33.684987060716836 0 0 1
1216 52 1 10.812202244851841 5.50544946206661 30.680116497200995 0 0 0
8278 5 1 1.9631190939621552 5.098883726318398 31.46707622898273 1 0 0
661 6 1 6.273681044536077 25.721976296864714 31.805919138565997 1 -1 1
4637 30 1 18.58457353388472 21.969925908140986 33.673260274896094 0 0 0
1611 9 1 16.19977069983022 17.517760509325857 45.0025913809212 0 0 0
3577 26 1 18.211406700001035 6.957764563251055 31.71286440086595 0 0 1
4189 39 1 18.390790036584605 17.498641396445393 33.57155578180988 0 0 0
224 30 1 6.349933714941059 21.244385914997952 31.454020779093838 0 -1 0
225 5 1 12.415273790665983 0.18961827026386832 36.761317347768426 0 0 0
226 5 1 12.009003777326564 1.356846961873161 37.6790323479422 0 0 0
227 5 1 13.13589381173641 2.0658662560612338 38.50063072006846 0 0 0
228 5 1 13.956869803494621 0.9302525031296969 39.08135874381425 0 0 0
229 5 1 15.116540208453687 1.3079434689419496 39.991529801911675 0 0 0
230 5 1 16.077935074932448 0.2615370395821405 40.38325734416243 0 0 0
1535 60 1 17.33116483099493 14.00685257541392 40.72971073815951 0 0 0
7283 45 1 0.1563394162670608 21.45934509332226 33.96933607641376 1 -1 0
8064 54 1 3.3088192386594377 10.273664097441454 44.669907832757254 0 0 0
8964 59 1 5.066257276000579 19.033988426981008 45.44034518380727 0 0 0
9194 62 1 9.685750705013621 19.434581256125252 43.84770778505373 0 0 0
7677 47 1 3.0074205537536614 5.965991005202897 44.33576593594582 0 0 0
9396 57 1 0.9413668277722826 19.84516752333064 37.95944832974842 1 0 0
8954 59 1 0.4970683079393623 14.129558634689047 36.34142579561086 1 0 0
910 9 1 14.109336362981976 7.95583139134556 43.12032686286774 0 0 0
445 5 1 11.263683547891288 24.23057172143568 32.545300457230695 0 -1 0
447 5 1 11.849407515047014 25.733310215233555 34.54434853677134 0 -1 0
448 5 1 11.313529873197183 26.488403246504145 35.79303151595346 0 -1 0
449 7 1 13.005079164730317 3.1201178800509823 42.165167417133034 0 0 0
450 7 1 14.28665507299384 3.6583424668473787 42.70490698179243 0 0 0
451 7 1 15.381963849739206 2.745227648754629 43.218980956693564 0 0 0
452 7 1 16.57864821747333 3.4624496868758947 43.66075603715024 0 0 0
453 7 1 16.12968820095945 4.037229125146462 44.910807263595046 0 0 0
454 7 1 17.210835509072055 4.635964139616036 45.76384864025795 0 0 0
9397 57 1 0.43503360431086346 20.5664161815246 39.22665326256468 1 0 0
8068 54 1 7.724401308351312 9.350860329305274 46.96210716601583 0 0 0
8277 5 1 2.684642850998364 4.288377094345296 30.376524669056963 1 0 0
7669 47 1 0.5764073964492186 1.02514039041827 35.95413614224647 1 0 0
231 5 1 17.482066091451625 0.7361384598547231 40.44095230212287 0 0 0
8519 54 1 7.319416926394714 13.958535961060049 46.307463742733376 0 0 0
8729 56 1 2.36700982421322 9.2785142766424 31.442596617807556 0 0 0
7672 47 1 0.6603116240297378 3.0461999556205575 39.232305438696926 1 0 0
9403 57 1 3.9597363502637046 22.8226747852815 44.69184874606567 0 0 0
2153 14 1 17.31090196001351 22.96254198855083 40.77938246912788 0 0 0
9185 62 1 4.484602102471728 16.862652543247027 36.479829259150165 0 0 0
8280 5 1 2.537523538682463 6.222694968725083 33.5264630558179 1 0 0
668 7 1 9.214198588405154 3.7092394368934722 38.57609809265382 0 0 0
669 7 1 8.739406561518916 4.277251164913685 39.85828258581131 0 0 0
670 7 1 9.825049345243341 4.80228062132441 40.69658061968224 0 0 0
671 7 1 10.734778724643814 3.632871988358949 41.017517933277546 0 0 0
672 7 1 11.982568311310768 4.170222510820517 41.72563284424219 0 0 0
673 10 1 11.788273692409238 3.803531544584698 34.44538200521266 0 0 0
674 10 1 11.456245888414186 4.602822204267659 35.7482368811975 0 0 0
675 10 1 12.642793346232654 5.155897787428132 36.53565512967502 0 0 0
676 10 1 11.971993611259583 5.617974531501466 37.81369588670609 0 0 0
677 10 1 12.894287554094111 6.225925773297164 38.837358633249984 0 0 0
678 10 1 14.180293086633709 5.335394995896416 38.780688647672356 0 0 0
679 10 1 15.26454275375496 5.7624469777102085 39.72862751479291 0 0 0
680 10 1 16.503204355094038 4.847462508403722 39.95920146186686 0 0 0
660 6 1 6.537850399886598 25.216129635834264 30.410200112841192 1 -1 1
1523 60 1 10.593643115696164 9.609436927321717 30.174515765128426 0 0 0
2141 14 1 10.267858030943223 18.67544676170157 30.00689978972844 0 0 0
3199 19 1 17.49110958031613 6.798731047535072 36.84262191376722 0 0 0
9632 12 1 2.2312400195232227 18.112266756421874 31.589107000405797 0 0 0
4417 28 1 14.675819311380334 19.45042619154746 34.05530439077832 0 0 0
8282 5 1 3.4660153944971266 7.635399240553203 35.587829478432994 0 0 0
2056 12 1 5.349861170297488 15.55889514868903 29.43032543188347 0 0 0
895 10 1 10.93218923586237 2.5339412184820183 32.38090256433666 0 0 0
896 10 1 10.649981871440719 3.103439555606195 33.740943390342565 0 0 0
897 9 1 5.973014121822738 3.3550959311197013 31.66833206778549 0 0 0
898 9 1 7.028092054727929 4.175840577083079 32.38425813048087 0 0 0
899 9 1 6.664212052790515 4.918135943140421 33.69131241239919 0 0 0
900 9 1 7.80346755212808 5.622682522080172 34.470691140309185 0 0 0
901 9 1 7.271938368935542 6.055921190157205 35.733748599694266 0 0 0
902 9 1 8.399096422429722 6.775167134554532 36.39257939169477 0 0 0
903 9 1 8.148002151805645 7.50170965334578 37.667542853542855 0 0 0
904 9 1 9.257342525381905 7.776220812413325 38.69951288183255 0 0 0
905 9 1 8.681437728790796 8.419843798675586 39.92991856657673 0 0 0
906 9 1 9.785459878302792 9.048834205892108 40.64784200381951 0 0 0
907 9 1 11.071150726694773 8.324023563627064 40.69148400287512 0 0 0
908 9 1 11.85633765076178 8.486483556201454 41.99574373496713 0 0 0
909 9 1 13.056018811885247 7.5703036038983775 42.09405780981213 0 0 0
3806 23 1 18.49214358589499 12.989338714170529 33.42331697669002 0 0 0
8062 54 1 2.462644955110454 9.26201769770932 42.47202964614399 0 0 0
9638 12 1 4.005447512688585 22.077289924244393 37.51684138654076 0 0 0
8742 56 1 8.537193110147191 16.19180984118528 43.301455920587195 0 0 0
8295 5 1 12.883463856918699 10.760227289604286 45.641214109355076 0 0 0
2968 47 1 14.04263749846386 0.551805711943261 31.845643779911864 0 0 0
4409 39 1 17.32649084369132 14.6373410088368 29.503809316720716 0 0 0
1612 9 1 17.256933343279766 17.937002603582645 46.05636476944859 0 0 0
8511 54 1 1.7743110558478312 12.382351267954647 40.58423557468498 0 0 0
2967 36 1 14.4868967028548 25.983849560942275 31.076112713841002 0 -1 1
1134 52 1 10.545447098980578 7.62558803964389 33.73338581188502 0 0 0
1135 52 1 11.626914035050943 8.295153263492233 34.55955451494303 0 0 0
1136 52 1 10.924441851345492 8.976785227127452 35.69616816041513 0 0 0
1137 52 1 12.094987002574854 9.502387165955394 36.58254896230848 0 0 0
1138 52 1 11.753247558459398 10.062904456344034 37.91678956532129 0 0 0
1139 52 1 13.00300906760985 10.692665470728125 38.62292415604963 0 0 0
1140 52 1 14.054810783001857 9.691413242861175 38.992578339906416 0 0 0
1141 52 1 15.214431898937454 10.338698965784802 39.76933651769117 0 0 0
1142 52 1 16.292636572350325 9.2697020621853 39.80517755874881 0 0 0
7285 45 1 0.6654848943272216 22.7439815773268 35.91873745040431 1 -1 0
7142 43 1 0.6546562741868521 25.80106689767263 46.54031303449406 0 0 0
662 6 1 7.400904709990984 26.420868109578848 32.59350771390573 0 -1 1
8058 54 1 1.1953019588644174 6.830372925990782 38.27301971022631 1 0 0
8962 59 1 2.9269381969439054 19.671762384695544 44.23106943787646 0 0 0
4419 28 1 15.528416568995075 20.57967658538937 36.04859920503968 0 0 0
4414 28 1 14.552275026351651 17.221851160776474 30.790393465940486 0 0 0
7675 47 1 2.3396175455381845 4.988729134706379 42.160626740283135 0 0 0
1218 52 1 11.269169320755067 6.854838525059544 32.71945145891958 0 0 0
1219 10 1 8.41668662053281 11.129206995099212 36.4199794728994 0 0 0
1220 10 1 7.969039751053934 11.658317057168526 37.734315555815535 0 0 0
1221 10 1 9.156199240256925 12.273671104861116 38.53054070484814 0 0 0
1222 10 1 8.510502713264584 12.872113530878146 39.78226096541677 0 0 0
1223 10 1 9.49872965331905 13.485738891026385 40.792856504718316 0 0 0
1224 10 1 10.596160795972581 12.491209690116031 41.200321232036984 0 0 0
1225 10 1 11.852306372455638 13.046574760377101 41.8470230276672 0 0 0
1226 10 1 13.022723105804776 12.129654238237356 42.092641776800875 0 0 0
1227 10 1 14.312508652111914 12.6422551495428 42.7793703885441 0 0 0
1228 10 1 15.147585474774887 11.437815541838942 43.1453775518612 0 0 0
1229 10 1 16.452901738274438 11.826326935707423 43.7318561992543 0 0 0
222 30 1 5.498437786457562 19.719853484660803 29.581290025221975 0 -1 0
4033 34 1 17.466931098472827 15.472085190351253 36.6176036160797 0 0 0
444 5 1 10.113655780363244 23.89300633030648 31.60148120164789 0 -1 0
8741 56 1 7.282434974068502 15.55721130752566 42.752460620740095 0 0 0
1758 6 1 5.400888128438145 11.154222512373883 29.339224301769278 0 0 1
3587 22 1 15.013737286709786 11.575719418213403 35.59957234527259 0 0 0
8740 56 1 6.279875849441592 16.552227611887123 42.45700018008019 0 0 0
1438 10 1 6.140673634230095 8.078912093181966 31.282646590065166 0 0 0
1439 10 1 7.189393299384598 8.375576117859882 32.29764660358984 0 0 0
1440 10 1 6.80279590934005 9.275139810994862 33.51348167859461 0 0 0
1441 10 1 7.797442226301656 9.570648819519134 34.58556866309925 0 0 0
1442 10 1 7.238302164174467 10.551603164894095 35.63725073913773 0 0 0
2586 15 1 13.64696194142565 21.216218370981625 29.752349234867832 0 -1 0
3200 19 1 18.65294106919708 7.332966579968881 37.632374484776626 0 0 0
1524 60 1 10.054535084231198 10.178222447107279 31.373028787632403 0 0 0
1525 60 1 11.150306363452314 10.884805836178362 32.152623727428356 0 0 0
1526 60 1 10.636993577991976 11.387811450218623 33.492702690814966 0 0 0
1527 60 1 11.72690730354962 12.249132210307033 34.16965819610934 0 0 0
1528 60 1 11.189740860102775 12.902444940869682 35.46043729887545 0 0 0
1529 60 1 12.155946269499848 13.805760399881887 36.1845762862294 0 0 0
1530 60 1 11.821382533999607 14.09099916853249 37.6233518411796 0 0 0
1531 60 1 13.015298837518419 14.802666262312453 38.24022126519851 0 0 0
1143 52 1 17.410282138573713 9.649820388085155 40.78542893954459 0 0 0
9180 62 1 2.3173213848970287 13.87272322948755 31.359346329084843 0 0 0
8958 59 1 1.4989386287598778 16.55162400746036 40.299665118004896 0 0 0
232 5 1 18.50267652671624 26.4741852773204 41.02542982100191 0 -1 0
7292 45 1 1.696600312899138 0.8748244816708768 43.379544289632186 0 0 0
8739 56 1 5.061221826376013 15.903408963781292 41.79669900325275 0 0 0
7851 43 1 12.048274671352116 5.4100523127735105 45.11383659709656 0 0 0
1770 62 1 18.734035203238236 17.411912373938108 40.73029814097059 0 0 0
1601 9 1 8.12336725562057 15.948003382576958 37.94562385963024 0 0 0
1602 9 1 9.336778940073634 16.57086608524668 38.6950327871064 0 0 0
1603 9 1 8.883059444739018 17.2955665461738 39.90648583391052 0 0 0
1604 9 1 10.084727197128093 17.75488842091382 40.66750555062056 0 0 0
1605 9 1 11.188784458083406 16.764640077509277 40.73468143186193 0 0 0
1606 9 1 12.282942243189249 17.323926069935315 41.54591524135399 0 0 0
1607 9 1 13.278652234580049 16.183193080894217 41.82553910921545 0 0 0
1608 9 1 14.353513284751381 16.91626153514878 42.67045956779574 0 0 0
1609 9 1 15.600560752501021 16.182434405347394 43.03951039410313 0 0 0
1610 9 1 16.681021876162497 16.793678388648967 43.781010517246486 0 0 0
893 10 1 10.403986845815645 1.029317183962364 30.703260902793915 0 0 0
7848 43 1 9.017857796016848 7.20832083210211 43.736689628136666 0 0 0
7835 43 1 1.9606375461380663 0.4387799516649363 31.74981352312005 0 0 0
7671 47 1 1.095371022027199 2.163477827015621 38.16981118490753 1 0 0
667 7 1 8.128326668889226 3.06202652075319 37.77532735678977 0 0 0
8507 54 1 0.4163491376734977 10.104522836057145 36.318262272354616 1 0 0
1436 10 1 5.589379799856162 6.7535140315661195 29.30207654777877 0 0 0
1674 9 1 6.140985398064695 12.360316452098667 31.400586478306295 0 0 0
1675 9 1 7.011202820674847 12.747339823772263 32.57712997920529 0 0 0
1676 9 1 6.62897618029502 13.736746948740736 33.631511730523485 0 0 0
1677 9 1 7.786427124448729 14.162293470059163 34.5867636355827 0 0 0
1678 9 1 7.243131451102178 14.771830647135786 35.82792345780821 0 0 0
1679 9 1 8.473225620468364 15.100547019481738 36.70081769958769 0 0 0
1759 62 1 11.047718556492873 15.287950243994016 32.47949275404624 0 0 0
1760 62 1 10.59749670799409 16.178482858031078 33.63616325991299 0 0 0
1761 62 1 11.75118702407468 16.85812985136722 34.50056917283375 0 0 0
1762 62 1 11.389702857726167 17.73007476258463 35.68901627242542 0 0 0
1763 62 1 12.518524202472165 18.19776273111808 36.53208818730697 0 0 0
1764 62 1 12.064022901377971 18.918753543066718 37.75122114186606 0 0 0
1765 62 1 13.202725031524242 19.54462382129265 38.49042220767975 0 0 0
1766 62 1 14.306566719787005 18.491496654508254 38.58435919583796 0 0 0
1767 62 1 15.601908399566033 18.72155149179929 39.31657988327639 0 0 0
1768 62 1 16.63702246122489 17.715998761027517 39.59200216027153 0 0 0
8956 59 1 0.8095350097292526 15.236454954154647 38.3914844584538 1 0 0
7673 47 1 1.7226157013329513 3.5173295011385832 40.143978545359495 1 0 0
666 7 1 8.547941954874295 2.084707080751333 36.728677367330995 0 0 0
8728 56 1 2.956437699452981 8.83399185410545 30.124597974852897 1 0 0
3582 22 1 14.646876835522036 8.326441175916074 30.111627454645873 0 0 0
892 10 1 9.477186200381334 0.539606562608218 29.54485020658118 0 0 0
4034 34 1 18.545729894273983 15.93290199901701 37.58499131277431 0 0 0
1982 62 1 9.984268209830622 14.454776295352525 31.802878690262204 0 0 0
1983 12 1 7.411112656916605 19.295941660840143 35.69604473043386 0 0 0
1984 12 1 8.339512474558155 19.42183701675259 36.83874648808284 0 0 0
1985 12 1 7.9643424696968355 20.60967372550742 37.753830327688405 0 0 0
1986 12 1 8.965680450601658 20.884696414307168 38.85546926878602 0 0 0
1987 12 1 8.657742208261096 22.170993028700963 39.57847175370365 0 0 0
1988 12 1 9.813678897881015 22.626937030332762 40.489029067529096 0 0 0
1989 12 1 10.735056475901 21.411737993198965 40.65269825273949 0 0 0
1990 12 1 11.901872562896754 21.719748860330323 41.56622417090296 0 0 0
1991 12 1 12.940762290054929 20.641698228590588 41.765623095866765 0 0 0
1992 12 1 14.073306462540938 21.099885142354122 42.69906945935577 0 0 0
1993 12 1 15.198957323600196 20.175046657696328 42.567760622972315 0 0 0
1994 12 1 16.403476827279054 20.672164217657873 43.37125768971557 0 0 0
7450 46 1 2.415282796569094 22.782027297475267 31.199816155812535 1 -1 0
9195 62 1 10.715333167751352 20.075336260786447 44.80638944560577 0 0 0
16 30 1 15.8144483074845 25.83987466958517 44.82304368287379 0 -1 0
1534 60 1 16.447848687396018 13.569079373366478 39.58138869523588 0 0 0
8733 56 1 3.382780753622236 12.068714798834774 35.48702973948941 0 0 0
9179 62 1 2.9359153417892436 13.226844309877407 30.126390990344362 0 0 0
975 9 1 6.54774928434842 2.6474120796235483 30.428656905173206 0 0 0
2058 12 1 6.1129573946137805 16.831615824722128 31.399548121809065 0 0 0
2059 12 1 7.167684675951122 17.08063212760898 32.52645714741868 0 0 0
2060 12 1 6.999136928786278 18.24375762336575 33.442271979649576 0 0 0
2061 12 1 7.866982887678247 18.217257697407273 34.70026827202174 0 0 0
4413 28 1 13.45775190272484 16.521698308274146 30.03845689569937 0 0 0
2142 14 1 10.031757349081856 18.9017278345255 31.491833163362497 0 0 0
2143 14 1 10.98966275401947 19.92980002190386 32.021656958293676 0 0 0
2144 14 1 10.867770726480122 20.209099633959685 33.43724914435125 0 0 0
2145 14 1 11.559053189250143 21.438483293380028 33.9991689954154 0 0 0
2146 14 1 11.556972234604444 21.378265474694096 35.535830410768945 0 0 0
2147 14 1 12.339932311242816 22.485375729273677 36.218774774309296 0 0 0
2148 14 1 11.783122986273696 23.123934011003456 37.57229542240504 0 0 0
2149 14 1 12.773233835362797 23.719514737163973 38.53094771860738 0 0 0
2150 14 1 13.987746873764173 22.820633511212105 38.64455164649798 0 0 0
2151 14 1 15.03615196162883 23.44703281600992 39.58637666383129 0 0 0
7452 46 1 3.147291128571912 23.865229548476925 33.307484887757255 0 -1 0
9640 12 1 4.296694843871986 23.76812243883447 39.29568256939381 0 0 0
9635 12 1 4.197373480225782 20.137561097033476 34.08648202386223 0 0 0
7294 45 1 3.981852297836675 0.6155535480516124 44.58746987741053 0 0 0
2154 14 1 18.494782113034315 21.966865556078442 40.7439455674702 0 0 0
9634 12 1 2.960406134098887 19.614261456191233 33.32049581928034 0 0 0
7849 43 1 9.843954831068952 5.992590292862339 44.23444549361638 0 0 0
2365 15 1 15.303951324859916 22.851556760701815 32.91930732330334 0 -1 0
2366 15 1 14.739761352178702 23.895500889370865 33.87518022331799 0 -1 0
2367 15 1 15.680627387518916 24.142655882200252 35.07631705955286 0 -1 0
2368 15 1 15.332014753321888 25.327909370643646 35.91134828425401 0 -1 0
2364 14 1 9.200275211321047 17.716391091350562 29.365438986675404 0 0 0
4635 30 1 18.286150610064148 20.521171056039073 31.691582973318035 0 0 0
2152 14 1 16.087849587841333 22.399981678875793 39.984656029523904 0 0 0
7674 47 1 1.285489973523376 4.2278426512654095 41.404064085410816 0 0 0
15 30 1 16.14943754942642 24.874933583983054 43.67941197406553 0 -1 0
2588 15 1 14.333868599368731 22.473622760564393 31.770668645196068 0 -1 0
1522 60 1 9.443219260716043 8.936224321646456 29.369884663092044 0 0 0
8959 59 1 1.0499287684550591 17.597324451968152 41.32578391100763 0 0 0
8738 56 1 5.695488063569807 15.118098782422713 40.684015723287715 0 0 0
9189 62 1 5.500667529373342 19.634699726367327 40.41997792891886 0 0 0
2747 47 1 15.954185710192576 2.1157247138177984 35.124850705867715 0 0 0
2748 47 1 15.475179023226756 3.3114060061539226 35.933712697862035 0 0 0
2749 47 1 16.756561501896442 3.594073099599618 36.733421554626695 0 0 0
1536 60 1 18.549541884865025 13.056005074482345 40.77224790116648 0 0 0
9648 12 1 11.594319547270777 23.066933015647347 44.81002025961959 0 0 0
9399 57 1 0.9629349424958382 21.944164330209457 41.32058354710731 1 0 0
8746 56 1 12.971580497116951 15.396793124137297 45.61218573583584 0 0 0
9646 12 1 9.481026198169596 24.013090211484055 43.63226039036491 0 0 0
2969 47 1 14.98806209047256 0.7470133889642746 33.0144886793974 0 0 0
2970 47 1 14.924018883132348 1.9307577116399726 33.98319349054084 0 0 0
7678 47 1 4.136960758517845 5.029373728089859 44.599564198768626 0 0 0
913 9 1 15.840661521406668 8.268834845258656 45.142760420074254 0 0 0
4187 39 1 17.99322538583938 15.975386679183709 31.59810523065139 0 0 0
3355 33 1 13.40904213532474 3.299227156533974 29.512524344253055 0 0 1
3195 19 1 14.520532463952348 6.173366956743797 33.66292961746035 0 0 0
3196 19 1 15.720206106423468 6.526150354414475 34.55533100617529 0 0 0
3197 19 1 15.222694616777929 7.3050829247320745 35.73752052382264 0 0 0
3198 19 1 16.425773219657096 7.847543052566161 36.45534685592298 0 0 0
8965 59 1 6.290337550375797 18.102793333098933 45.59839822338803 0 0 0
9182 62 1 2.835934501439927 15.368001643037202 33.39593937668406 0 0 0
9198 62 1 12.536205257593616 19.953686339287486 47.030759517247816 0 0 0
8065 54 1 4.3046112488075705 9.181900836454881 45.049780646242006 0 0 0
4032 34 1 16.344282760687197 16.488316635255014 36.35203485890536 0 0 0
2587 15 1 14.822923579146229 21.553364656864424 30.709445496592785 0 -1 0
9401 57 1 1.8081595427551136 23.121521846536126 43.44302727267858 0 0 0
5932 1 1 0.8214007898515394 12.289565302009716 46.75236911128735 1 0 0
9191 62 1 6.651990323259671 20.9491094543037 42.29463609201801 0 0 0
3583 22 1 14.182002494853684 8.946234629756525 31.446237903033172 0 0 0
1217 52 1 10.198314129578973 6.259212887188504 31.85569026109882 0 0 0
9650 12 1 12.570897985862457 24.42042088821423 46.77415350034395 0 0 0
1673 9 1 6.503218907512658 11.36637207375895 30.299237360726245 0 0 0
974 9 1 5.316759317127146 2.115798094819923 29.671140765403614 0 0 0
3584 22 1 15.265987327737392 9.404468732206368 32.42658346121386 0 0 0
3585 22 1 14.626465163788543 10.35948531534395 33.40401474784836 0 0 0
3586 22 1 15.66991602377176 10.820813136268368 34.432272487724944 0 0 0
9405 57 1 6.040122467699294 22.316748519602523 45.839780872061 0 0 0
9649 12 1 12.842211296591714 23.602095887148064 45.55382588271521 0 0 0
17 30 1 16.975191832431484 26.534212552162465 45.648980905739954 0 -1 0
9398 57 1 1.518177841763299 21.218290703434043 40.14119851209792 1 0 0
7288 45 1 0.504211453252752 25.217894391368997 38.95971911144569 1 -1 0
9639 12 1 4.987460346793179 23.020088096589987 38.17753768915271 0 0 0
9184 62 1 3.40305880915873 16.376285579581804 35.458674828306236 0 0 0
4028 34 1 15.11527312303369 13.898363667947507 32.1517187872405 0 0 0
4029 34 1 14.589721992652505 14.46924345583689 33.48362286007246 0 0 0
4030 34 1 15.660310008704625 15.31511016397522 34.104319144368795 0 0 0
659 6 1 5.3078169490186236 24.70013717282053 29.67072906135257 1 -1 1
1533 60 1 15.087475363997969 14.258178946371634 39.69483725861731 0 0 0
7681 47 1 7.3713979343668985 5.323407043028816 46.897221591361564 0 0 0
7850 43 1 11.091623524958194 6.531706151631238 45.00178624856674 0 0 0
9400 57 1 2.166989707096548 22.48415475185762 42.07781875964445 0 0 0
14 30 1 14.854793361000755 24.64770620433732 42.85680001865516 0 -1 0
4106 34 1 14.021260834064778 13.142201944451543 31.35250721598511 0 0 0
8063 54 1 2.0702829984270745 9.926912186116597 43.81901541783417 0 0 0
9394 57 1 0.2410323441102148 18.308458784768305 36.20254721210813 1 0 0
8736 56 1 5.21265580989021 13.987857379513196 38.53293973567071 0 0 0
1995 12 1 15.793046031065634 21.474194329658122 44.487227675235374 0 0 0
3276 19 1 15.019338252998862 5.361757494286538 32.399400344171184 0 0 0
1980 62 1 9.433076047724516 13.350060324835933 29.452693142115372 0 0 0
894 10 1 9.750154480583774 1.8975995127509255 31.762895513236373 0 0 0
7676 47 1 1.8087131108553274 5.416978141200378 43.53339613675901 0 0 0
3193 17 1 17.273922073507517 1.6619103312700703 29.69527834740808 0 0 1
4415 28 1 13.930172766785095 18.05155995792005 31.93881814235567 0 0 0
4416 28 1 14.972902990333003 18.492929141281174 32.946737361248964 0 0 0
8279 5 1 3.107811519277876 5.491237742632367 32.36169318589453 1 0 0
446 5 1 10.679149653507457 25.326085686167602 33.541482990887786 0 -1 0
7293 45 1 2.8838272206264284 1.5089325023159703 44.039873912028554 0 0 0
7449 46 1 2.661559241100637 21.559664851993354 30.378502519242193 1 -1 0
9183 62 1 3.920024425159196 16.110874366785435 34.12434254690398 0 0 0
9404 57 1 4.9854004513294 23.33785186502411 45.63083125418497 0 0 0
7833 43 1 1.8756163613982717 26.03750485592308 29.518875778680123 0 -1 0
665 6 1 7.402193767766375 1.8621473786301983 35.71677890267551 0 0 1
9181 62 1 3.4346207651139835 14.41324975734689 32.320696929248065 0 0 0
4031 34 1 15.216570509237442 15.770139604111899 35.5435412665997 0 0 0
681 10 1 17.72012801968186 5.4660939471375105 40.60850254166953 0 0 0
7837 43 1 2.6567709527214114 2.098408502597982 33.725546489257695 0 0 0
9633 12 1 3.385766616183873 18.695516334059526 32.19641527995243 0 0 0
8737 56 1 4.617350798478195 14.738213060244561 39.69877651152569 0 0 0
7836 43 1 2.993924509359254 1.1783651594998685 32.47813222040589 0 0 0
7453 46 1 4.167151929769092 24.598767199722616 34.177010845179396 0 -1 0
9190 62 1 5.336526491701699 20.429645389063023 41.73142255064477 0 0 0
1437 10 1 6.692557886176907 7.006183640235823 30.3512482791243 0 0 0
2370 15 1 17.586573662343987 24.90369544809453 36.87266822482338 0 -1 0
8730 56 1 3.4099754282186994 10.057327205988313 32.237785183289525 0 0 0
18 30 1 16.513106197064296 0.8689059189497385 46.72577966449433 0 0 0
8745 56 1 11.866904866172892 14.800768101189993 44.75436760739555 0 0 0
8283 5 1 4.665453643954194 8.187841902209602 36.311205331322306 0 0 0
9188 62 1 4.291156372772017 19.086906675923228 39.68842199538484 0 0 0
2741 16 1 17.410756186072717 24.115180161365323 29.77278037652268 0 -1 1
3588 22 1 16.024014926487222 12.205169465620914 36.473669913998904 0 0 0
9647 12 1 10.675793209752614 24.258773358071394 44.55736342991639 0 0 0
8743 56 1 9.447278790741768 15.086273849144355 43.9445530079487 0 0 0
3589 22 1 17.385886015685244 11.513488288723176 36.345653733558564 0 0 0
8735 56 1 4.1425373953465705 13.395877737971501 37.567969542205496 0 0 0
8509 54 1 1.162832909766113 11.358381697108886 38.4446606820222 0 0 0
9645 12 1 8.330800320494356 24.969085172291415 43.429766246285226 0 0 0
911 9 1 15.332304141742698 7.071132713239583 43.05914201364378 0 0 0
3804 23 1 18.13863868426051 11.708454687031976 31.35852855704276 0 0 0
7287 45 1 0.9193482906882717 24.277002943072233 37.841222457621114 1 -1 0
8961 59 1 1.7511423708868934 18.918072902687758 43.59297335897356 0 0 0
9637 12 1 4.640772094325181 21.550064615473406 36.2437295413512 0 0 0
8514 54 1 1.6837709338799667 14.810515805173804 43.63394256240866 0 0 0
9187 62 1 4.748355318907029 18.191330604077116 38.50384738244741 0 0 0
8296 5 1 12.421919506211466 11.637390098899989 46.764887903517874 0 0 0
3275 19 1 14.074634581306473 4.518369073164143 31.642282691826857 0 0 0
9402 57 1 2.903941328479192 23.86814128352481 44.23080281698438 0 0 0
9197 62 1 12.835388579295305 19.516700963909255 45.67977558193912 0 0 0
8731 56 1 2.703574660620611 10.844209216969194 33.320454611352574 0 0 0
8061 54 1 1.3469681591222353 8.900305409575367 41.53440218411427 0 0 0
8518 54 1 5.915746807857548 13.489547636499077 45.92931503042405 0 0 0
8515 54 1 2.8884259621223674 15.402747085258195 44.38439810996863 0 0 0
9193 62 1 8.642589904682401 20.485458667769922 43.44221591172182 0 0 0
8510 54 1 0.6590605008026296 11.920928544977631 39.71923079224504 0 0 0
9644 12 1 7.0557071504807425 24.487446789477822 42.76169053721635 0 0 0
914 9 1 16.81662659437336 9.210004769830366 45.87811896245043 0 0 0
3274 19 1 14.569655171356343 3.696412996695301 30.393422904645135 0 0 0
2750 47 1 17.627695837736795 2.3813324398797158 36.92987609061753 0 0 0
7454 46 1 3.6773260131584022 25.283354173656168 35.43352073847836 0 -1 0
7455 46 1 4.814885159487157 26.026223115532723 36.1305814985615 0 -1 0
7456 46 1 4.0977573371772245 0.08722667089470942 37.296109551667236 0 0 0
7457 46 1 5.022413331179263 0.9592918583984982 38.19374222382762 0 0 0
7458 46 1 4.3800685775959876 1.347565300026554 39.5451217330819 0 0 0
7459 46 1 5.525181878407583 1.9349137235867935 40.366693532086984 0 0 0
7460 46 1 5.140888408410931 2.8149793649271335 41.534825092202055 0 0 0
7461 46 1 6.322224541875636 3.384506354803294 42.300404837046536 0 0 0
7462 46 1 7.12808337404027 2.2954379848699222 42.82052955063358 0 0 0
7463 46 1 8.176658927418181 2.825864439447048 43.77417461785261 0 0 0
7464 46 1 9.162143990880038 1.7585527212857646 44.18285357977078 0 0 0
7465 46 1 10.523478037830774 2.1989627739001 44.57332375265519 0 0 0
7466 46 1 11.307306890862767 1.0820063353491989 45.196011159515706 0 0 0
8517 54 1 4.974432552673502 14.510797844838319 45.40092905446973 0 0 0
8967 59 1 8.441387809269061 17.21277547283806 46.8272382897614 0 0 0
9636 12 1 3.8689214581382734 20.460560321230837 35.58212932751769 0 0 0
9643 12 1 5.933135349836955 25.55891771218917 42.39038894383352 0 0 0
9186 62 1 3.7864837583228006 17.521398422089487 37.61535723216228 0 0 0
8963 59 1 3.963872636462947 18.62562964500202 44.5278962338201 0 0 0
8744 56 1 10.68263491178686 15.715996984644045 44.56450378514007 0 0 0
4105 34 1 14.586450201761053 12.6211422357596 30.0749643227887 0 0 0
7679 47 1 5.169839254171603 5.639443140492488 45.53867303741441 0 0 0
7680 47 1 6.20595475704567 4.704556279821769 46.07356447362253 0 0 0
1997 12 1 16.2543473911449 22.657973798309097 46.60254820027143 0 0 0
7289 45 1 1.5761524546464323 25.42327111234435 40.057275775891156 1 -1 0
8960 59 1 2.0848058321613636 18.36677847911346 42.13175117138615 0 0 0
8281 5 1 3.71674941831107 6.681199530246886 34.45844019979123 0 0 0
8513 54 1 2.2133059438774976 13.883524722983665 42.50766738416151 0 0 0
7467 46 1 12.619197986116115 1.4709596092357076 45.79922993005931 0 0 0
9192 62 1 7.66559509354241 19.816950273833424 42.55904232875185 0 0 0
1230 10 1 16.188522338420984 12.562357271666608 45.04816934588262 0 0 0
8734 56 1 4.47918966404001 12.763030223836608 36.28495302802623 0 0 0
8512 54 1 1.149757994991896 13.202060990051228 41.72800241165153 0 0 0
9196 62 1 11.614490919272077 18.906866718654918 44.99354835130367 0 0 0
7838 43 1 3.8795755284929885 2.6754114855597297 34.28344641972762 0 0 0
7839 43 1 3.569453928248702 3.2192750572096935 35.66787364190448 0 0 0
7840 43 1 4.679935939968762 3.8238454290262647 36.503207471499195 0 0 0
7841 43 1 4.258375169129158 4.7396076393017825 37.60666329387589 0 0 0