LAMMPS data file via write_data, version 23 Jun 2022, timestep = 11112117

8487 atoms
2 atom types
8471 bonds
3 bond types
8455 angles
3 angle types
8439 dihedrals
3 dihedral types

0 36.89775039 xlo xhi
0 26.67072 ylo yhi
25.538885778145968 211.21271862180112 zlo zhi
0 5.841703065610157 0 xy xz yz

Masses

1 14
2 15

Pair Coeffs # lj/cut/omp

1 0.0914 3.95
2 0.1947 3.75

Bond Coeffs # harmonic/omp

1 449.5 1.53
2 449.5 1.53
3 449.5 1.53

Angle Coeffs # harmonic/omp

1 62.0967 114
2 62.0967 114
3 62.0967 114

Dihedral Coeffs # opls/omp

1 1.411 -0.271 3.145 0
2 1.411 -0.271 3.145 0
3 1.411 -0.271 3.145 0

Atoms # molecular

1 2 1 5.179773895037075 26.116372567684397 26.949541776143146 0 -1 0
2 2 1 5.975638580708226 0.3794281784641859 27.961098375992112 0 0 0
3 2 1 6.328755036766225 26.36088552822283 29.264808356313697 0 -1 0
4 2 1 7.314858935637328 0.4028094707498417 30.140482888123675 0 0 0
5 2 1 8.144265657127535 26.190916958053286 31.027090076429946 0 -1 0
6 2 1 8.852315409119669 0.24287961772228583 32.161686864580005 0 0 0
7 2 1 9.71542207432131 26.094839620375573 33.05907179822006 0 -1 0
8 2 1 10.616817979892225 0.27296547635818225 33.995051970274574 0 0 0
9 2 1 11.480866669583431 26.18136020110906 34.94487710323773 0 -1 0
10 2 1 12.258522552407113 0.27866346839064887 36.064224379037945 0 0 0
11 2 1 13.304051133427894 26.219883969992154 36.89983917052174 0 -1 0
551 5 1 9.87451828941692 3.850137683380049 32.88999123329749 1 0 1
634 4 1 5.287873800807016 8.380566398714235 27.077540552997334 0 0 0
230 22 1 11.19877002959762 1.8743103218359973 28.76117143314847 0 0 0
8301 49 1 3.2856297063340607 22.587782107286234 36.11409762357081 1 0 0
1076 12 1 9.467332249436394 11.056979181155732 26.874587171040414 0 0 0
6330 50 1 3.1994644158766703 0.20243686924060036 36.876775405626034 1 0 0
8078 63 1 2.291960412532924 19.75683148252777 28.17231951645261 1 0 0
1372 13 1 13.714164227545913 16.316053014744906 31.704871080994376 0 0 0
6332 50 1 4.597071472133502 0.04635728516093498 39.014779238711704 0 0 0
601 6 1 18.100958276602924 7.159837377692105 37.79734928300947 0 0 0
8451 50 1 1.0256686844939882 24.26447632207663 28.53520853818578 1 0 0
3626 18 1 17.693766885417936 18.38456719242802 32.0948385906406 0 0 0
6570 52 1 10.936407248810205 2.629814560403556 40.133313959743575 0 0 0
4915 38 1 2.780748528515212 6.276548552550454 42.17246570798392 0 0 0
5962 48 1 2.764996527543708 20.46778679533894 41.27164872523183 1 0 0
1295 7 1 5.947958653674439 13.635365256907958 28.171791011752823 0 0 1
8300 49 1 2.461715389232301 21.87361953876752 35.14589640174587 1 0 0
6327 50 1 1.0468210358355359 26.20856358019078 33.67646440033324 1 -1 0
231 22 1 12.292947162715707 2.473946561021543 29.619910272762056 0 0 0
232 22 1 12.481996848407045 1.823439632461102 31.006182968278903 0 0 0
233 22 1 13.60808109212081 2.6368898945162234 31.78885063942525 0 0 0
6768 57 1 3.9978051999152395 4.179174377364989 37.73809497428995 1 0 1
3845 28 1 14.618566488357546 17.553248546268183 26.852118961431167 0 0 1
6765 57 1 1.6319233958264459 4.731040504304275 34.765557623422055 1 0 1
6766 57 1 2.707630864596906 4.134941497013385 35.66483527031549 1 0 1
7002 58 1 3.93994868196183 5.796551261690529 31.112071408116027 0 0 0
552 5 1 10.750600555472298 4.735582814890299 33.66380680338748 1 0 1
7004 58 1 5.291559879466714 5.904845072983019 33.351982794531025 0 0 0
8456 50 1 5.664193431419705 24.173131781587347 32.83360224068061 0 0 0
1899 18 1 9.694390032815877 24.197726709847352 26.50642799800351 0 0 0
7333 3 1 0.5933671772555456 10.778089036374343 27.18986220899867 1 0 0
1378 13 1 5.196047671668738 18.20474940526255 26.01831572845307 0 0 0
2887 24 1 17.36180407589914 8.462062881020316 30.540705927088744 0 0 0
7000 58 1 2.212087456207238 6.121260041980048 29.277663922998805 0 0 0
2888 24 1 17.754955396376197 9.22480142509882 31.826021540933095 0 0 0
3625 18 1 17.002202789371772 17.560370103979512 30.942087738351994 0 0 0
2130 21 1 16.943344933851353 0.2506213652459997 29.77377395888159 0 0 0
4610 38 1 2.9773271236296672 2.378173544410453 42.04647872406193 1 0 0
4074 6 1 14.751501103369966 22.612180322656897 27.565835787943037 0 0 0
1395 13 1 17.816559689028143 17.844654284740212 43.67532311323699 0 0 0
6254 49 1 3.5039887826989293 24.412027330791425 42.05398370070186 1 0 0
1671 15 1 10.818020028041492 20.625944462232837 27.73770126889956 0 0 0
7344 3 1 9.21284064916883 11.306460390198962 38.25011027520104 0 0 0
1298 12 1 8.433314333583771 12.863758510510724 31.00202884538161 0 0 0
13 2 1 15.017692400778031 26.56041991024437 38.952779787621104 0 -1 0
5509 45 1 1.4630072265947476 14.996083417869091 39.906643971959376 1 0 0
513 4 1 14.433310408899784 4.65612727860024 39.14189567244691 0 0 0
514 4 1 15.18350426687686 5.305805424748657 40.35763333783326 0 0 0
515 4 1 15.745394478721446 4.325072849546301 41.340095185152805 0 0 0
7240 11 1 8.210705959079503 9.428072427680815 42.72938550335935 0 0 0
5961 48 1 2.35071928221108 19.693610642052473 40.00384544966069 1 0 0
1679 16 1 16.47815042551817 21.964994490112307 41.264409545903035 0 0 0
5964 48 1 4.260266491061662 20.34831300519391 43.36231446253545 1 0 0
594 6 1 12.492771902722946 6.498838775709852 30.799765595062187 0 0 0
595 6 1 13.36122041865463 7.270981475876851 31.786288597083846 0 0 0
596 6 1 14.422304313077817 6.43124705590222 32.51804156681431 0 0 0
597 6 1 14.852401056385943 7.166894224491846 33.817897835644985 0 0 0
598 6 1 15.771798497002857 6.293833951689807 34.67271519171113 0 0 0
599 6 1 16.614853938157943 7.161506497737254 35.65288796794472 0 0 0
4916 38 1 3.9775224431490597 6.805050831510956 42.93103306315386 0 0 0
649 4 1 16.886443113245324 9.629788922737166 42.10093583289759 0 0 0
6771 32 1 6.133627503752519 4.611860122647987 40.84376826179121 1 0 0
7869 16 1 8.337566814792313 18.285412466623566 42.79127775281304 0 0 0
7334 3 1 1.7262073791033157 11.475568352038213 27.923387176765665 1 0 0
645 4 1 13.627538260255017 9.80549155029702 38.31463117877467 0 0 0
555 5 1 12.932924318514514 4.489066461178246 37.04036211091932 0 0 1
1379 13 1 5.795914625269588 17.470904373376758 27.176042234099196 0 0 0
8302 49 1 4.1039571484487 21.774918503437632 37.08163702446514 1 0 0
7232 11 1 1.9919437513174594 9.442371697388744 34.48515621137999 0 0 0
8081 63 1 3.656590495843985 19.572130337700443 31.722614805090743 0 0 0
6773 32 1 7.938731568861613 4.566391476589048 42.710674902058635 1 0 0
227 22 1 8.97164234106175 3.143760671388085 25.77227700711061 0 0 0
6255 49 1 4.030260315270557 25.26561552559025 43.25991196141079 1 0 0
861 12 1 16.073763992653173 11.545534632185214 36.203325680786286 0 0 0
3106 59 1 18.15991135816737 11.402469383516047 26.410116623151293 0 0 0
635 4 1 6.138631165336519 9.101917927786374 28.015145616087366 0 0 0
636 4 1 6.8108480317468105 8.27434809959813 29.06211726583299 0 0 0
637 4 1 7.597396224234586 9.145642518714354 30.10330126550914 0 0 0
638 4 1 8.395580421792948 8.394449278829526 31.116682057881054 0 0 0
639 4 1 9.276852366898023 9.204133749852664 32.023913173322 0 0 0
554 5 1 12.311629906343075 5.134430567347526 35.694591459541044 0 0 1
7828 60 1 3.2404124901908413 15.906650901331433 30.317670583519654 0 0 0
7867 16 1 6.727933104022467 18.080374115004307 40.827775907179614 0 0 0
6329 50 1 2.9862282553107287 26.436330226841598 35.43772132514566 1 -1 0
229 22 1 10.622238332245994 2.869350785718236 27.73441046499536 0 0 0
2882 24 1 13.018442380787777 9.263187035510047 25.70987789359579 0 0 0
3329 63 1 14.785634331985811 13.968968436005772 27.602684001003784 0 0 0
6772 32 1 7.160007352633214 3.9024714969239462 41.54482692693476 1 0 0
7839 60 1 11.51098971492794 15.415814453265801 41.51270864640246 0 0 0
517 4 1 17.570479350160603 4.082976314186627 43.14684026853804 0 0 0
8091 63 1 11.790999177789109 20.1022534221527 41.507125025435286 0 0 0
1342 13 1 18.700075603431948 15.925411421055196 39.022000976770656 0 0 0
8299 49 1 1.4115522465365529 22.725868033193247 34.43195015078723 1 0 0
6328 50 1 1.6905461475225951 0.27260152713996283 34.87758628636932 1 0 0
855 12 1 11.845264960388256 11.659930002820396 29.83535158691074 0 0 0
856 12 1 12.872707472318993 10.855857067724747 30.59949076010245 0 0 0
857 12 1 13.469958817012534 11.662498431559504 31.753755748275335 0 0 0
858 12 1 14.222649710078334 10.805011080689301 32.79362645658426 0 0 0
859 12 1 14.883309611280284 11.706986315009393 33.939371199579185 0 0 0
1297 12 1 7.768780920692579 13.590804424056719 29.87795647491716 0 0 0
7568 58 1 3.885263248961705 13.474764406355133 37.0920456548106 0 0 0
7236 11 1 4.90538295960069 9.385272154637459 38.855041342340236 0 0 0
4913 38 1 1.2423941810955983 6.5647945672224415 40.084808110202985 0 0 0
556 5 1 13.601333822040656 5.473627467292349 38.063523056549755 0 0 1
6336 50 1 7.854508267306009 0.2602545664003087 43.06572344338433 0 0 0
8088 63 1 9.59860943135163 20.77737734866514 38.47880026323819 0 0 0
630 6 1 11.652126092138975 7.411641916479562 29.957935239964172 0 0 0
7335 3 1 2.392669987106726 10.58746135517607 28.967261554613067 0 0 0
7566 58 1 2.3724322571760315 13.576408782229818 35.21058745019695 0 0 0
1642 15 1 16.66904761550206 20.651704760897008 36.25257192411328 0 0 0
1077 12 1 10.583554483774785 11.768976112450238 27.571736672343757 0 0 0
1078 12 1 11.282525607018984 10.971147257149802 28.652397894019913 0 0 0
1079 12 1 11.871100312633514 13.832507627166489 36.392830160959036 0 0 0
1080 12 1 12.688221768146231 13.179663211094972 37.470000092807226 0 0 0
1081 12 1 13.516641160793961 14.184869818704847 38.35176795117988 0 0 0
1082 12 1 14.217461495310928 13.44075464150365 39.48034003908178 0 0 0
1083 12 1 15.204964423155875 14.244769905988754 40.24144595095886 0 0 0
1084 12 1 15.85054699970253 13.57259303060445 41.48389788023074 0 0 0
1085 12 1 16.984739721407113 14.36763439815075 42.091525706735325 0 0 0
7859 16 1 0.3442811672683175 18.267209160482352 33.17657112050167 1 0 0
7565 58 1 1.8649100399841587 12.889183909505766 33.92651682115541 0 0 0
7841 60 1 13.174561860224397 15.46681473536544 43.42203554656817 0 0 0
7003 58 1 5.182659580181002 6.279921135479827 31.849303026875475 0 0 0
8080 63 1 3.5934844243799553 20.01381473469162 30.23493660996416 1 0 0
7836 60 1 9.091220293913363 16.074219728313018 38.4189017966876 0 0 0
8454 50 1 3.9561798530326717 23.684502453393005 30.979876950845643 1 0 0
7234 11 1 3.365189771224606 9.505416233435394 36.63531288461453 0 0 0
6999 58 1 1.8722622337719863 6.891343079495352 27.983500023052645 1 0 0
1341 13 1 18.479228475508297 16.257917794909005 37.547177825973066 0 0 0
7348 3 1 12.127713061618001 11.54673720301949 42.47988114558002 0 0 0
7574 58 1 8.164837102159094 13.846803775815143 43.32051212291705 0 0 0
1390 13 1 14.036704822594203 18.26982913363429 38.31353273666336 0 0 0
1300 12 1 9.988146729464445 12.95516915584222 33.06390506353205 0 0 0
1301 12 1 10.39643694196551 13.670496744473574 34.34651000553032 0 0 0
1302 12 1 11.273306809401074 12.882484643864638 35.35395698370784 0 0 0
1376 13 1 16.748806235595744 16.144599188540752 35.67546701004963 0 0 0
860 12 1 15.541160511170034 10.79948710426323 34.94177597146403 0 0 0
7014 58 1 13.024307056489778 6.34338437108637 43.45859163536355 0 0 0
4077 6 1 17.3777960336062 22.01785818153247 30.309100517875 0 0 0
6558 52 1 1.7287679524413526 2.431539234732213 28.04732900936574 0 0 0
1908 18 1 16.43159677032677 25.039563950475994 36.034927175267754 0 0 0
7235 11 1 4.459504816339062 8.852194576837018 37.48130270628513 0 0 0
1910 18 1 18.040432801564158 24.9698169138512 37.935089380405095 0 0 0
7237 11 1 6.1076862519355135 8.731206275532417 39.51296670175883 0 0 0
7866 16 1 5.973593071309151 17.0821229740543 39.89558940207822 0 0 0
1293 7 1 4.227384976087222 13.53565633510385 26.290690152988603 0 0 1
1393 13 1 16.047989193382474 17.905357121760034 41.84823311717827 0 0 0
646 4 1 14.352944786106747 8.96362564195346 39.37026983249245 0 0 0
2794 19 1 13.023262363147522 4.656732044755038 25.576453155809666 0 0 0
1373 13 1 13.90144937367851 15.949194437975327 33.186538526334886 0 0 0
1374 13 1 15.282913230917117 16.049354403776714 33.74388357279564 0 0 0
1375 13 1 15.375960831753655 15.613174793521395 35.17986002388938 0 0 0
1907 18 1 15.834414650193883 24.433284825959873 34.71494824120008 0 0 0
1644 15 1 18.41740841909118 20.530095078073625 38.16952702202296 0 0 0
7573 58 1 7.558705509917235 13.000737783438819 42.17247856317419 0 0 0
6573 52 1 12.821495983195474 2.2960024689737657 43.38860907894035 0 0 0
1380 13 1 6.857718721725764 18.127973979850974 28.00852553959721 0 0 0
1381 13 1 7.259533005051199 17.270189384214373 29.19303490138676 0 0 0
1382 13 1 8.030003647948845 18.1275483273892 30.254342576352748 0 0 0
1383 13 1 8.64185240435886 17.35499202703473 31.40694907400302 0 0 0
1384 13 1 9.249373278036204 18.206391200750627 32.467929717150824 0 0 0
1385 13 1 9.801544223738405 17.54568495839938 33.74355469381928 0 0 0
1386 13 1 10.783364933779248 18.31711340785101 34.572661869389044 0 0 0
8304 49 1 5.739449258380018 21.777066443491403 39.01533079724355 0 0 0
2883 24 1 14.154164458577835 8.519045329165975 26.453096844290172 0 0 0
224 2 1 4.53811106189179 0.31951931099908676 25.89757426396839 0 0 0
545 5 1 5.061788289740238 3.992541766232969 27.248971110441982 1 0 1
7336 3 1 3.448467779054101 11.45100820137077 29.712022101639405 0 0 0
8457 50 1 6.075299090248692 24.892331615863593 34.16238279323224 0 0 0
1672 15 1 11.233020558243393 19.926297652677334 29.031259294595134 0 0 0
5212 42 1 2.966901124667775 10.792635884412336 42.19561352676972 1 0 0
7571 58 1 5.656217335317122 12.944813969249303 40.35616705653984 0 0 0
1670 15 1 9.78068930221278 19.8214872432871 26.9716628760294 0 0 0
7837 60 1 9.888958368968497 15.379152718869896 39.51727023562042 0 0 0
3846 18 1 15.1766127695666 18.54907678866567 27.808850257003833 0 0 0
6770 32 1 5.484230157101796 4.017756696149682 39.644460645718155 1 0 0
1638 15 1 13.475762673641121 20.883497205584952 32.11461418805572 0 0 0
1639 15 1 14.28659463410341 20.035740136856923 33.127134396795874 0 0 0
1640 15 1 15.048655263957196 20.834931873295996 34.22684850666241 0 0 0
1641 15 1 15.92625909102597 19.96511441581245 35.13199108365719 0 0 0
1637 53 1 9.07961867798068 20.61546387950937 25.859501242365187 0 0 1
8455 50 1 4.376698923108358 24.473889173560142 32.23979434536549 0 0 0
8084 63 1 6.72760283652323 20.200034628070703 34.14117282250356 0 0 0
7833 60 1 7.031157999281761 14.807506358008537 35.30684892833149 0 0 0
7860 16 1 1.2741602540249084 17.37792932467329 33.9325331805958 1 0 0
1075 12 1 8.906214918351305 11.802091861275466 25.687156874304044 0 0 0
8092 63 1 12.542939755901873 20.995939506230865 42.505633225934865 0 0 0
2129 21 1 15.547242401554037 26.56096055756106 29.127806572567685 0 -1 0
4075 6 1 16.093925159884392 22.19456598678689 28.201820064419934 0 0 0
1391 13 1 14.424920785198845 17.73671694922925 39.746967284097735 0 0 0
2128 21 1 15.594408572573377 0.2225546696450783 27.644415227169436 0 0 0
7835 60 1 8.302416650322742 15.09355402440728 37.530496043595534 0 0 0
1673 15 1 12.147720241422629 20.736295556630385 29.988403299517394 0 0 0
1674 15 1 12.50100777761298 20.021694721569745 31.267259453301776 0 0 0
1675 16 1 13.158468795740577 22.045579740556445 37.33017152865502 0 0 0
1676 16 1 14.273034742768477 22.863434750583334 38.029818955759104 0 0 0
1677 16 1 14.766600917659698 22.155649167975433 39.29155003553494 0 0 0
1678 16 1 15.8437875105445 22.82805551943452 40.18128243924571 0 0 0
4073 6 1 14.375671366576297 22.190519296964318 26.100019375473337 0 0 0
4912 38 1 0.8858110337635834 7.216455631845171 38.76282702579955 1 0 0
5959 48 1 0.4765692899216387 19.512867975400948 38.07469534416843 1 0 0
628 6 1 10.271946535786016 7.5944689039960185 27.894708705052 0 0 0
629 6 1 11.201265104055087 6.674552580202321 28.699536862326347 0 0 0
553 5 1 11.373949861264746 4.168815861570558 34.93676433483803 0 0 1
516 4 1 16.546934345982834 5.0140576869201 42.428415382421946 0 0 0
7346 3 1 10.471838078165806 11.401225021347114 40.527020661916985 0 0 0
6769 57 1 4.508732365141398 4.920549489471043 38.97703780881311 1 0 1
6331 50 1 4.569164927068497 26.43139541708349 37.54051214551899 1 -1 0
7340 3 1 6.665012728140428 11.392635730187815 33.7219564497197 0 0 0
7347 3 1 11.520334820389724 10.710109485223922 41.353539987663225 0 0 0
1296 12 1 7.037359380139391 12.811340272515478 28.857407914566377 0 0 0
1893 16 1 8.806401825125072 22.0292102122939 31.06222592291305 0 0 0
1894 16 1 9.248926690596287 22.729922986542483 32.29987880160726 0 0 0
1895 16 1 10.02210044511666 21.891907988772303 33.319312141266934 0 0 0
1896 16 1 10.936245103012915 22.703326132430607 34.19150857850921 0 0 0
1897 16 1 11.529938891219427 21.990195948135668 35.40181185948547 0 0 0
1898 16 1 12.592392025464743 22.739871598481322 36.13664239754399 0 0 0
7863 16 1 3.939745022830414 18.119907812882307 36.70249375162216 0 0 0
1900 18 1 10.155057792585126 25.023435769595807 27.703983963120468 0 0 0
1901 18 1 11.198558893732327 24.215230464249174 28.513092509869175 0 0 0
1902 18 1 11.580971018321922 24.920885820094693 29.825767209129296 0 0 0
1903 18 1 12.797444116223051 24.333790499931585 30.503703441685673 0 0 0
1904 18 1 13.175936358059852 24.86190793682088 31.86826362344338 0 0 0
1905 18 1 14.42781276241927 24.266113787749156 32.59962230300381 0 0 0
1906 18 1 14.580960612309228 24.889177127818215 34.001435668308524 0 0 0
5210 42 1 1.6461116380299343 10.802012012205168 40.10671268072139 1 0 0
1890 51 1 6.319715760412355 22.571240455220476 28.070006737249624 0 0 1
548 5 1 7.936208190931906 4.522561905934038 29.644966606463022 1 0 1
549 5 1 8.317865523190807 3.869902733318038 30.94954249299778 1 0 1
7339 3 1 5.600402032229929 10.649332393138465 32.9236272653656 0 0 0
7567 58 1 3.5310131455895477 12.741773337189388 35.726949851043386 0 0 0
7238 11 1 6.339866824129903 9.419641778719773 40.84180182983525 0 0 0
626 6 1 8.689722861849342 7.545244333433572 25.789007506644904 0 0 0
8079 63 1 2.3152753521239 19.449907974942832 29.617488945422497 1 0 0
5211 42 1 1.9640089436609183 11.610240896417851 41.35663363995614 1 0 0
627 6 1 9.719189229334667 6.865252455991358 26.67798120881003 0 0 0
644 4 1 12.721844724645868 8.874201650291935 37.46853708915655 0 0 0
15 2 1 16.311169933200166 0.0033496571939874127 41.12108192891548 0 0 0
8453 50 1 2.698790254688999 24.38215496887992 30.360233435575985 1 0 0
1681 16 1 18.070638514324568 22.031318673314118 43.27229934885216 0 0 0
1891 51 1 7.412804690730586 21.86140505092549 28.808740180238956 0 0 1
8083 63 1 5.4532884584451615 19.466542200618864 33.695292252547745 0 0 0
6333 50 1 5.9903595587412575 26.39147583282534 39.60212022866884 0 -1 0
8298 49 1 0.9725435469545154 22.083735135816944 33.10545228228135 1 0 0
3328 63 1 13.89409987769809 13.107555535992084 26.72704919324566 0 0 0
8076 62 1 0.6526049707315612 19.954619129981193 26.03042712150083 1 0 1
7241 11 1 8.5110971748204 8.769363361399009 44.09131295917816 0 0 0
7341 3 1 7.005504082790058 10.618745124869479 35.01406195134214 0 0 0
16 2 1 17.197287692772026 0.6490460754469081 42.19469582099202 0 0 0
7564 58 1 0.7173214864807174 13.577365282893716 33.17669527599246 0 0 0
6774 32 1 8.897362789958438 3.8295572946803778 43.61306340419404 1 0 0
6251 49 1 0.7610868822776043 24.67316892539972 39.2409844142443 1 0 0
7230 11 1 0.5615676195449795 9.351282422388536 32.522785625051405 0 0 0
1909 18 1 17.541136158282985 24.301024288179164 36.66695023710932 0 0 0
6569 52 1 9.792973810861215 1.9675441004945877 39.313925693883924 0 0 0
8306 49 1 7.360567010083775 21.79583145804912 41.112456448244416 0 0 0
7345 3 1 9.965976004734282 10.543528524711173 39.345974001583144 0 0 0
546 5 1 6.304234333088334 4.635678353336691 27.852046357720674 1 0 1
7824 60 1 0.28327470951085254 15.910694266342603 26.19740903168159 0 0 0
1389 13 1 12.894977565119985 17.50821741685613 37.670235558114285 0 0 0
1680 16 1 17.436644846448246 22.747174525701368 42.1262010584876 0 0 0
2572 19 1 14.659492975958104 4.665095027413433 27.555720561900294 0 0 0
650 4 1 17.82538415269209 8.729227962724439 42.88776040326186 0 0 0
5960 48 1 1.0678710468939494 20.227565916318653 39.27545290544003 1 0 0
1892 16 1 7.867219923211024 22.68525561045747 30.006982871416014 0 0 0
18 2 1 18.846488517134723 0.6949700058149995 44.07175050371798 0 0 0
1392 13 1 15.536215981323013 18.499576133027592 40.53788742863031 0 0 0
2575 19 1 17.41270328850246 3.9755504500766765 30.326990661806157 0 0 0
4608 38 1 1.7105836696266663 2.3595452421495793 39.81756484371486 1 0 0
7830 60 1 5.083977239930962 15.769635462631088 31.968696501757282 0 0 0
8458 50 1 7.175224901652641 24.186920834577865 34.970802994835765 0 0 0
236 22 1 15.701513078742538 2.1571443780783435 34.89315504413895 0 0 0
6572 52 1 12.603262643333336 2.7485578600740426 41.92704671359667 0 0 0
6567 52 1 8.220937077332351 2.063846066486688 37.409595857916 0 0 0
8305 49 1 6.490510724531577 22.58715039207784 40.08030184152494 0 0 0
7572 58 1 6.659273057107282 13.809508626251375 41.277470313422526 0 0 0
8463 50 1 10.596590321262815 25.321272635731606 40.27169242852361 0 0 0
7826 60 1 1.9136358662371626 15.93693987645999 28.262815299228595 0 0 0
7563 58 1 0.20215546284027494 12.747648639651876 31.955686972537 0 0 0
547 5 1 6.833222930952739 3.7381308199105603 28.947678031505202 1 0 1
237 22 1 16.501150043000916 3.014353785123166 35.841329198288854 0 0 0
1394 13 1 17.181904553030325 18.62740454051859 42.52170105044796 0 0 0
2884 24 1 14.634393899482896 9.261441484962658 27.711415671738 0 0 0
238 22 1 17.20275682180322 2.1624494209201286 36.855409567256146 0 0 0
1338 29 1 12.125359818895372 16.35560772720138 29.802122543392922 0 0 1
6559 52 1 2.149972959627761 1.652320582034367 29.308109018273914 0 0 0
3848 18 1 16.147125255147877 18.493487372561788 30.100899333279582 0 0 0
5508 45 1 0.8767200107933075 15.857542426786054 38.776339046572815 1 0 0
1889 51 1 5.606966082596525 21.839501658904567 26.947632845011125 0 0 1
7838 60 1 10.957070540826098 16.151124208610824 40.26057713162862 0 0 0
3330 63 1 15.28490770341679 13.403986339978115 28.917751484468447 0 0 0
4076 6 1 16.129300057730163 22.732038647028507 29.663630910385486 0 0 0
7862 16 1 3.03867447366331 17.24647702983498 35.75953432860844 0 0 0
7868 16 1 7.395365987752804 17.420762774759663 42.04258193848153 0 0 0
6998 58 1 0.83294339843125 6.194055682493919 27.111569645166632 1 0 0
7013 58 1 12.150645845055905 7.1180482675706385 42.44810599073197 0 0 0
1337 29 1 10.827536523257331 15.75104461235871 29.183708535433766 0 0 1
7342 3 1 7.963732371865485 11.435508221973691 35.98979018289959 0 0 0
8464 50 1 11.72737936790286 24.59943440293017 41.078777397920796 0 0 0
544 5 1 4.665107830554609 4.614798525265241 25.878986293706575 1 0 1
2122 18 1 8.462278177070072 24.883773022748795 25.880854188259054 0 0 0
640 4 1 9.761213354931808 8.577010714445702 33.35131503448744 0 0 0
7831 60 1 5.978300779691474 14.971406944147533 32.84508406563046 0 0 0
8465 50 1 12.419730946437314 25.37462039562839 42.23975064043324 0 0 0
1336 29 1 10.757514872019573 16.098807558434657 27.678857135574138 0 0 1
6252 49 1 1.728818878551488 24.066681771093005 40.22771694815756 1 0 0
12 2 1 13.989419961548506 0.40873076172953954 37.97061117788875 0 0 0
2131 21 1 16.910501259571493 26.557989803702547 31.20847643897253 0 -1 0
6767 57 1 3.0232018494945065 5.007136137657768 36.90336563665399 1 0 1
641 4 1 10.736622753490122 9.362422731280724 34.18531185840392 0 0 0
7829 60 1 4.021180942838656 15.014999232700074 31.235519211498044 0 0 0
3332 63 1 17.183069191964965 13.208623063843026 30.643041086297544 0 0 0
5510 45 1 2.480669222363676 15.768395798077885 40.750484716115565 1 0 0
234 22 1 14.261836129033494 1.885287334844224 32.95380026111525 0 0 0
7001 58 1 3.6202840800634664 6.56887463490131 29.77659569793978 0 0 0
6568 52 1 9.528032462265436 2.575403750674363 37.94615960328318 0 0 0
8090 63 1 11.41103260646495 20.681680824579868 40.1785315638459 0 0 0
1388 13 1 12.339196426315088 18.204772217920056 36.423637350964846 0 0 0
862 12 1 17.233274819594907 10.777489791483802 36.90772042857214 0 0 0
4078 6 1 17.727958464724328 22.81830239559648 31.62187066339277 0 0 0
239 22 1 18.34668690042172 2.8947170588910023 37.65966804628892 0 0 0
7239 11 1 7.186198083383693 8.672677019983913 41.924156364519405 0 0 0
8303 49 1 5.02116797714978 22.61416582893475 37.932827993006015 1 0 0
5213 42 1 3.3712078274712907 11.46402582104725 43.4832871412592 1 0 0
2574 19 1 16.39148676376202 4.777335121847311 29.426655459705714 0 0 0
1299 12 1 9.247042259869705 13.724265503305803 32.02720804443942 0 0 0
2127 21 1 14.165984465860383 0.04027973300852067 27.138508505786497 0 0 0
2571 19 1 14.152544678403324 3.9503013234852893 26.322367079174175 0 0 0
8093 63 1 13.329880391536149 20.19746720244016 43.59385870405673 0 0 0
1339 29 1 12.300142075314495 16.11082177611678 31.28686960000664 0 0 1
7337 3 1 4.021486960400068 10.614882522653662 30.807298267332726 0 0 0
7861 16 1 2.1879062438915953 18.179208473697255 34.860891806749436 0 0 0
8087 63 1 8.596351083965791 19.899709790868954 37.665432886648105 0 0 0
8462 50 1 10.354842712802892 24.650052535044484 38.90037385753547 0 0 0
7233 11 1 2.97406504472994 8.723634552748534 35.40767360897617 0 0 0
6253 49 1 2.278803024202592 24.948456473622148 41.340915403039375 1 0 0
7832 60 1 6.612352659576305 15.663843319376902 34.08798902107853 0 0 0
8086 63 1 8.11974312153663 20.6002428408932 36.38170991872349 0 0 0
2573 19 1 15.73917870740402 3.892573167656889 28.31182831383041 0 0 0
4914 38 1 2.432347272102757 7.089156613467426 40.939390981035096 0 0 0
7570 58 1 5.311129130984139 13.63707634746639 39.12575076523613 0 0 0
7827 60 1 2.219686212455028 15.24000591762734 29.53284173397197 0 0 0
550 5 1 9.382378444327944 4.683872522409692 31.728721649847856 1 0 1
8461 50 1 9.201589206774424 25.2561180835882 38.040780600580995 0 0 0
8089 63 1 10.387292354471706 19.833445648440634 39.379492770659255 0 0 0
7840 60 1 12.4646847771766 16.263866857681833 42.330999216653744 0 0 0
643 4 1 12.286268813455576 9.483182780443009 36.128017836599 0 0 0
5511 45 1 3.075564027429752 15.055602702614031 41.9826105602271 1 0 0
8460 50 1 8.957780946496692 24.540492118051446 36.70935764195629 0 0 0
235 22 1 15.222943750205301 2.797408041197832 33.63448841183112 0 0 0
8082 63 1 4.814618988840632 20.26610767020874 32.50235926648589 0 0 0
6334 50 1 6.240081034729428 0.11206701583934543 41.09272628709836 0 0 0
6335 50 1 7.692037564879541 26.47297947137928 41.647708843362864 0 -1 0
1086 12 1 17.520618458355468 13.53631609391874 43.25471900903172 0 0 0
3331 63 1 16.357724525022995 14.089977655594504 29.699578227179476 0 0 0
4609 38 1 1.885626786265079 3.0219265794068497 41.207716691440176 1 0 0
8307 49 1 8.040850006884133 22.723535037190864 42.10697795452138 0 0 0
7005 58 1 6.4120430861703595 6.565995963462114 34.12561264336117 0 0 0
7569 58 1 4.7975003085421575 12.71229446266506 38.02950266121602 0 0 0
642 4 1 11.577299631512938 8.582800811629888 35.14752268234369 0 0 0
6566 52 1 7.852625309726759 2.730609627457627 36.053218867758844 0 0 0
228 22 1 9.446032818110416 2.2934478421438547 26.94018057686303 0 0 0
1387 13 1 11.188248706535308 17.55627903915824 35.7589728087829 0 0 0
2886 24 1 16.365845541230794 9.272896641867673 29.59761957806888 0 0 0
8466 50 1 13.205435740151952 24.453740766143863 43.238723366963555 0 0 0
6571 52 1 11.484605542372332 1.9132375440750158 41.35043790568973 0 0 0
6557 52 1 0.6708559238728916 1.5524347758586545 27.352951323874542 0 0 0
8452 50 1 2.0724802194625673 23.497778146564716 29.328093791311787 1 0 0
7870 16 1 8.988421322341594 17.51862574024523 43.91442481489446 0 0 0
5963 48 1 3.9145709051993367 19.789673828004013 42.025472761730285 1 0 0
6560 52 1 3.1662349331997284 2.390165626165176 30.223449584133128 0 0 0
6561 52 1 3.851373997974506 1.5851992423564496 31.27252956715937 0 0 0
6562 52 1 4.483611558342294 2.4431114999882864 32.35867881042542 0 0 0
6563 52 1 5.2481165593962675 1.5623170733634468 33.41855723551994 0 0 0
6564 52 1 6.222839279504336 2.5032012365855167 34.122495435610844 0 0 0
6565 52 1 6.864690685526401 1.790792743733929 35.300425819181655 0 0 0
863 12 1 17.980919500592204 11.640754050435365 37.92824683124361 0 0 0
7231 11 1 1.2917277404501943 8.535542203927998 33.500193089468354 0 0 0
7865 16 1 5.512007666683535 17.854378368435807 38.710652760134195 0 0 0
1294 7 1 5.488741490035947 12.94329796195792 26.88752445192374 0 0 1
1335 29 1 9.431192015403214 15.598450881408448 27.09544810233982 0 0 1
7834 60 1 7.798027481062649 15.814348949484698 36.213415283132946 0 0 0
8308 49 1 8.443541223697096 22.09997957951019 43.42075587884099 0 0 0
647 4 1 15.30162376536266 9.810732151790749 40.27020276221077 0 0 0
3847 18 1 15.977393586496909 17.764945101721242 28.794735022116516 0 0 0
17 2 1 18.15642849557034 26.490859471940237 43.01272948693411 0 -1 0
6988 57 1 1.3313951185052935 3.9819863722879822 33.468110408528354 1 0 1
8085 63 1 7.092713177070669 19.81329403983734 35.5766156096864 0 0 0
2132 21 1 17.8868071020966 0.7281632262504323 31.966941560958617 0 0 0
648 4 1 16.001270333755834 8.877974918509658 41.14571200478866 0 0 0
633 4 1 4.599635896775815 9.217233711206617 26.018991798285118 0 0 0
7864 16 1 4.673227708124073 17.15017785435918 37.63819706865805 0 0 0
6337 50 1 9.238011834175683 26.50807842197238 43.598442452109126 0 -1 0
8459 50 1 7.617695340515369 24.98349038660924 36.14215136111501 0 0 0
7338 3 1 5.071067592042973 11.397572770590534 31.631036374533195 0 0 0
2576 19 1 17.877968372440805 4.887566205617801 31.478537833670327 0 0 0
8077 63 1 0.9650563398826509 19.3969748113841 27.447767523161335 1 0 0
2885 24 1 15.549305937674708 8.449975142399312 28.59926560806505 0 0 0
1888 51 1 4.416566495027337 22.497285906193802 26.28998802014974 0 0 1
7825 60 1 0.7402268776483076 15.296376488951509 27.54736736861587 0 0 0
7006 58 1 6.767676745447891 5.929384193586977 35.38014263672731 0 0 0
7007 58 1 7.8010322866533075 6.6542937262421 36.219786528148305 0 0 0
7008 58 1 8.173340554898457 5.867175114815399 37.4582821974749 0 0 0