LAMMPS data file via write_data, version 23 Jun 2022, timestep = 1000

8487 atoms
2 atom types
8471 bonds
3 bond types
8455 angles
3 angle types
8439 dihedrals
3 dihedral types

0 36.89775039 xlo xhi
0 26.67072 ylo yhi
0 236.7516044 zlo zhi
0 7.448720975 0 xy xz yz

Masses

1 14
2 15

Pair Coeffs # lj/cut/omp

1 0.0914 3.95
2 0.1947 3.75

Bond Coeffs # harmonic/omp

1 449.5 1.53
2 449.5 1.53
3 449.5 1.53

Angle Coeffs # harmonic/omp

1 62.0967 114
2 62.0967 114
3 62.0967 114

Dihedral Coeffs # opls/omp

1 1.411 -0.271 3.145 0
2 1.411 -0.271 3.145 0
3 1.411 -0.271 3.145 0

Atoms # molecular

1 2 1 7.29085380606271 1.8754997755761826 7.596904525004093 0 0 0
2 2 1 8.111216662267893 1.005061529274293 8.568966007358755 0 0 0
3 2 1 8.674595835166684 1.840629856681074 9.74009964448528 0 0 0
4 2 1 9.433833728062684 0.9905899708342003 10.792960264758962 0 0 0
5 2 1 9.86705074911909 1.8796223978270667 12.018487893013681 0 0 0
6 2 1 10.679117877028968 1.0473662220890072 13.00063674128679 0 0 0
7 2 1 11.31050608076181 1.8361691719143314 14.162292548739615 0 0 0
8 2 1 12.122831051216991 0.9630020827479474 15.182470642547084 0 0 0
9 2 1 12.660236034261583 1.7254857969659574 16.41174076954341 0 0 0
10 2 1 13.356066423992903 0.8605797361164421 17.47394350646088 0 0 0
11 2 1 13.980666700352124 1.5261964244005524 18.72961002015947 0 0 0
12 2 1 14.860627293721143 0.6532720749128351 19.55377050244692 0 0 0
13 2 1 15.447714828291474 1.4060497206960956 20.743735791759867 0 0 0
14 2 1 16.539446942936223 0.7404799631553308 21.581671964164098 0 0 0
15 2 1 16.953826461950587 1.5176750122957097 22.832071857813812 0 0 0
3846 18 1 12.09218227426794 18.792860913008397 0.7521469918941287 0 0 0
218 2 1 2.437674649121049 1.0101405267326893 0.06448802505709474 0 0 0
219 2 1 2.728822740288678 1.6887246726748089 1.374607733207545 0 0 0
220 2 1 3.912512948334508 1.0890013220699843 2.0891927130797048 0 0 0
221 2 1 4.493047745156448 1.9129199432476143 3.247108914645181 0 0 0
222 2 1 5.452427533205932 1.1956545660563083 4.155040550203436 0 0 0
223 2 1 6.047149525276455 2.049622040186306 5.28350054952591 0 0 0
224 2 1 7.00264172512232 1.2690849470482684 6.20977105655454 0 0 0
225 22 1 10.255163598226792 3.427387831359592 5.357054907250182 0 0 0
226 22 1 11.36337669192686 4.066220108391671 6.188707022454307 0 0 0
227 22 1 11.389523996452596 3.736504590423622 7.717153561176169 0 0 0
228 22 1 12.709385818423433 3.977096576489678 8.47260022479189 0 0 0
229 22 1 12.735222857996348 3.6840700872237724 9.998205661636407 0 0 0
230 22 1 14.146967874735546 3.8067177810810513 10.567045048989698 0 0 0
231 22 1 14.151464185115863 3.7121727952930663 12.112466445029654 0 0 0
232 22 1 15.532517605911893 3.4098084073121453 12.646743418594898 0 0 0
233 22 1 15.5911198825497 3.3590625064527475 14.155942822053909 0 0 0
234 22 1 17.006056434294166 3.2972300945296613 14.657950326147546 0 0 0
235 22 1 17.1541528529365 3.2989209413534786 16.216935185716622 0 0 0
8079 63 1 0.12148663012255068 21.498697927041402 2.2857779518931522 1 0 0
7861 16 1 1.0620517155307905 18.466956748445984 11.156485227771217 0 0 0
7811 60 1 0.12803072905249735 17.16609247914652 2.995683869050775 1 0 0
445 22 1 7.595910975115742 2.961486794079075 1.174253567272864 0 0 0
446 22 1 8.640815086956572 3.79337250697685 1.7772370576717798 0 0 0
447 22 1 8.91084849051372 3.3403387070433306 3.1861405053480336 0 0 0
448 22 1 10.060309475809353 4.013649185600889 3.9526313738158594 0 0 0
449 4 1 7.341419144140986 5.609226142271706 8.441687260624732 0 0 0
450 4 1 8.778231357959541 5.80993309361263 8.950696714926062 0 0 0
451 4 1 8.845238189481085 5.739879499416597 10.493667764282186 0 0 0
452 4 1 10.199171541664507 5.891206603451896 11.302923281043368 0 0 0
453 4 1 10.126247390381957 5.750230241261816 12.80558978635909 0 0 0
454 4 1 11.487296459764256 6.045873579233131 13.502104226134112 0 0 0
455 4 1 11.430599269908376 6.159526504053129 15.04506042266926 0 0 0
456 4 1 12.788466850248044 6.000500066822183 15.709084073942767 0 0 0
457 4 1 12.893806839290123 6.113112796138916 17.218241591454625 0 0 0
458 4 1 14.288251209495298 5.974099337277181 17.809850958092632 0 0 0
459 4 1 14.29211905978803 5.876850897642047 19.356795464159692 0 0 0
460 4 1 15.66218258607971 5.681303476172975 19.92376106687042 0 0 0
461 4 1 15.818930322571358 5.770001553304681 21.467891651053037 0 0 0
462 4 1 17.144076320348443 5.80757302367252 22.209748057027756 0 0 0
2348 55 1 18.488041715388196 4.179420230732052 2.2633355112092093 0 0 0
1296 12 1 2.818622323476631 14.399143636619057 0.035097352867624255 0 0 0
513 4 1 3.3680432780637775 5.731138335430054 0.3087086921627629 0 0 0
514 4 1 3.2864332739656485 5.767071107958253 1.8412650819423373 0 0 0
515 4 1 4.595671222214787 5.897614870535214 2.6116090173975905 0 0 0
516 4 1 4.438699899009109 5.7750960711184085 4.128267941268417 0 0 0
517 4 1 5.766544516996161 5.646985487427473 4.854637325431127 0 0 0
518 4 1 5.708741450490393 5.655261646245148 6.397914016650156 0 0 0
519 4 1 7.150362792787311 5.623451053619959 6.9219328800459365 0 0 0
594 6 1 10.523002802228685 7.75717163421437 5.976582527773812 0 0 0
595 6 1 11.720369472664546 8.351811597530073 6.723829826088178 0 0 0
596 6 1 12.016462027546527 7.69375850465767 8.064753839344931 0 0 0
597 6 1 13.275367456264474 8.12034499896373 8.905426274446901 0 0 0
598 6 1 13.272978884349945 7.765699337287558 10.428236434619539 0 0 0
599 6 1 14.622792243590599 8.04508678873628 11.076845075331278 0 0 0
600 6 1 14.832049954001075 7.745697304085542 12.612706253885369 0 0 0
601 6 1 16.20763277897001 7.970762284258569 13.247197549992263 0 0 0
602 6 1 16.35702360838117 7.533431363502849 14.712262952194687 0 0 0
603 6 1 17.59465277090413 8.043544765269123 15.420565167330091 0 0 0
604 6 1 17.81552638806127 7.572869854163685 16.819909336294227 0 0 0
1910 18 1 18.341491299415086 25.767104417247005 17.0787145435576 0 0 0
626 6 1 7.652573113391859 8.286541384539518 0.2504353957131249 0 0 0
7223 11 1 0.5575914512359881 9.739349538957146 10.60771308501852 0 0 0
627 6 1 7.690742791879094 7.693301880885453 1.6705313750412438 0 0 0
628 6 1 8.931620059733504 8.186443844258406 2.4062482236515104 0 0 0
629 6 1 9.135672230168844 7.664015080834179 3.8528999574504352 0 0 0
630 6 1 10.302374032021634 8.295493229781247 4.564563963654242 0 0 0
631 4 1 7.296268837903074 9.947877641615348 8.077308996138719 0 0 0
632 4 1 8.719471998896374 10.228686467108233 8.702843457004171 0 0 0
633 4 1 8.783449099047791 10.065704138966057 10.191792915905573 0 0 0
634 4 1 10.174746382587628 10.160225051521547 10.832507769135695 0 0 0
635 4 1 10.200449166922793 10.164281955315381 12.369095294569993 0 0 0
636 4 1 11.593578177328174 9.832044657422509 12.951212284420288 0 0 0
637 4 1 11.639953730208871 9.967537303121231 14.482037117576308 0 0 0
638 4 1 13.068931818719085 10.086138292271965 15.069776632382522 0 0 0
639 4 1 13.09697220271708 10.251502032710873 16.60633385095316 0 0 0
640 4 1 14.494367622970724 10.288225235793652 17.278608292682648 0 0 0
641 4 1 14.404649542869615 10.400407652238634 18.772445721869122 0 0 0
642 4 1 15.61124117922657 9.93208556465178 19.578559861691634 0 0 0
643 4 1 15.53238281292258 9.958533150206552 21.13502203724498 0 0 0
644 4 1 16.85331378878793 9.582995984599314 21.8005596733626 0 0 0
645 4 1 16.95976293539642 9.926460541011135 23.27076703756179 0 0 0
8311 49 1 4.793673851985907 23.509311644855842 19.126291000274502 0 0 0
4072 31 1 16.7285579364375 21.36988196841151 0.38822899808608596 0 0 0
849 4 1 3.1720101994375294 9.937830938628963 1.4812476243268224 0 0 0
850 4 1 4.4704962493227605 10.185585696925159 2.229602391399002 0 0 0
851 4 1 4.362759038872784 10.02595800438921 3.7409336390381633 0 0 0
852 4 1 5.755151918624265 10.051356287571025 4.385223187563302 0 0 0
853 4 1 5.882732429994134 9.928923600900447 5.948376547687867 0 0 0
854 4 1 7.284301036537276 10.08133015311731 6.542083234031563 0 0 0
855 12 1 11.29384498657511 12.222715576072217 5.611035488921347 0 0 0
856 12 1 12.141488122940276 13.00425253245641 6.629544219037421 0 0 0
857 12 1 12.35659310357115 12.225134556866173 7.960166331839671 0 0 0
858 12 1 13.305606507824093 12.965624568066188 8.900540975839421 0 0 0
859 12 1 13.551836371132007 12.151176094064272 10.191240808638682 0 0 0
860 12 1 14.617421316273035 12.765059631772997 11.141434529629796 0 0 0
861 12 1 14.925077110541162 11.952389531220671 12.430822498638289 0 0 0
862 12 1 15.930823889164584 12.616588896023472 13.271668289659544 0 0 0
863 12 1 16.349655699122533 11.784737662555548 14.470444417496765 0 0 0
864 12 1 17.32599954122086 12.619177846699133 15.344833944937141 0 0 0
865 12 1 17.88350724368378 11.921605652618608 16.566430858414126 0 0 0
866 12 1 18.55024827987236 12.900237664940478 17.5610001234909 0 0 0
3587 24 1 16.985047172482172 17.309251939496534 0.6447446291593047 0 0 0
7812 60 1 0.39387939398720795 16.653223232286148 4.413068277079063 1 0 0
1075 12 1 8.250319349799879 12.097583370182107 1.4383096431937121 0 0 0
1076 12 1 9.014384647764539 13.009980184347052 2.4219211498710935 0 0 0
1077 12 1 9.757235525876107 12.223509890474734 3.4708286413417775 0 0 0
1078 12 1 10.493662466251187 13.002687353518933 4.582800262127676 0 0 0
1079 12 1 7.499037463187512 14.9073637560929 7.724612542458568 0 0 0
1080 12 1 8.71888803004888 14.359161710835576 8.461523952129477 0 0 0
1081 12 1 8.897811651011004 14.911239525453968 9.84799913347977 0 0 0
1082 12 1 9.90030659161729 14.168341735369635 10.756633452881662 0 0 0
1083 12 1 10.097982739224447 14.749161387783348 12.152644336778325 0 0 0
1084 12 1 11.167999770504952 14.042553810273429 12.956726484307225 0 0 0
1085 12 1 11.37372909590098 14.605700720842963 14.34160969462352 0 0 0
1086 12 1 12.553802824482945 14.127650045644458 15.167626376376308 0 0 0
1087 12 1 12.685824354489862 14.719981836548312 16.56133129874776 0 0 0
1088 12 1 13.858819028391789 14.148858108417343 17.340167944239194 0 0 0
1089 12 1 14.003769692227472 14.559187461537952 18.82092220682516 0 0 0
1090 12 1 15.240254074770485 14.060415976519929 19.5761259671853 0 0 0
1091 12 1 15.33080514086841 14.65986109588579 20.987835176443895 0 0 0
1092 12 1 16.410665294232363 14.020345405349431 21.92378605000143 0 0 0
1093 12 1 16.628738911707057 14.674209725728462 23.267368496167332 0 0 0
236 22 1 18.55135890773152 3.438009528004911 16.89544797283404 0 0 0
1911 18 1 18.326794643074262 25.787908469524503 18.60484059990636 0 0 0
1297 12 1 3.2117889360141016 15.020668927904183 1.3503375603158492 0 0 0
1298 12 1 4.238811830078149 14.200702387874543 2.123411591203972 0 0 0
1299 12 1 4.790623462027848 14.961910270587286 3.336839496964124 0 0 0
1300 12 1 5.695303778517374 14.17240423152563 4.312643360192784 0 0 0
1301 12 1 6.063130135479163 14.956114264446772 5.6241059202466355 0 0 0
1302 12 1 7.2151089215750215 14.304117235014363 6.3474127639192535 0 0 0
1340 13 1 10.885746552363015 16.981827234940777 6.268702177108561 0 0 0
1341 13 1 11.92139776940992 17.706607222038933 7.0896853573325735 0 0 0
1342 13 1 12.203603684689616 17.060074242077484 8.441000218697022 0 0 0
1343 13 1 13.35334110903468 17.606518430148874 9.350580338700189 0 0 0
1344 13 1 13.47415201350642 16.943122384812693 10.722188971916855 0 0 0
1345 13 1 14.632412269200792 17.411709889558352 11.555171136550012 0 0 0
1346 13 1 14.802958558536355 16.6942029886536 12.906205602274696 0 0 0
1347 13 1 16.080367184927667 17.10311188725594 13.659181076939484 0 0 0
1348 13 1 16.070610486356486 16.710458399105686 15.113954709732672 0 0 0
1349 13 1 17.335701012307258 17.051755324660178 15.878028405747845 0 0 0
1350 13 1 17.44080071920092 16.761721121141395 17.381216101211564 0 0 0
2841 22 1 17.09860884477632 8.176930245637864 0.4824649416423358 0 0 0
2570 55 1 16.892024758341915 4.1738259211416 0.19815148247072265 0 0 0
1372 13 1 7.5779920290395 17.299827936385068 0.8740982556370795 0 0 0
1373 13 1 8.04017167889343 16.5351148173671 2.1308270613077664 0 0 0
1374 13 1 9.022895936203778 17.338623554779353 3.0014630217299834 0 0 0
1375 13 1 9.728141430943781 16.580116107028065 4.087056667216806 0 0 0
1376 13 1 10.597828429834037 17.51034067868135 4.911151369791239 0 0 0
1377 13 1 8.018581260762208 19.55411983019986 7.615503832166694 0 0 0
1378 13 1 8.33237877011045 18.808301556298982 8.950664142349249 0 0 0
1379 13 1 9.018792936236299 19.70315350818904 10.016155283641766 0 0 0
1380 13 1 9.383736487586248 18.91428941230138 11.20603337169369 0 0 0
1381 13 1 10.436092890360223 19.549590980595482 12.132750487286467 0 0 0
1382 13 1 10.807723395940288 18.795762328554577 13.433404873659489 0 0 0
1383 13 1 11.669336963369762 19.563579518250606 14.396307251936163 0 0 0
1384 13 1 12.301578647892956 18.65672202959723 15.502960753397568 0 0 0
1385 13 1 13.27014443445475 19.328989971800986 16.46398684128052 0 0 0
1386 13 1 13.26262117139986 18.775528764460642 17.84075125878542 0 0 0
1387 13 1 14.422966858641944 19.302855868028413 18.69806596381832 0 0 0
1388 13 1 14.803158245094151 18.449757110516273 19.93061364326477 0 0 0
1389 13 1 15.870536831924065 19.04767420379625 20.83643681845736 0 0 0
1390 13 1 16.022992827044085 18.517410850611988 22.221973737711988 0 0 0
1391 13 1 16.815010484110513 19.41791148987468 23.09275426327702 0 0 0
8457 50 1 2.8091776255742587 25.857465711737888 6.744557642975175 0 0 0
1594 13 1 2.795280012857267 18.816545156204143 0.1393349741765848 0 0 0
1595 13 1 3.4362849264445545 19.6514432275443 1.2051786626136105 0 0 0
1596 13 1 4.184167516055573 18.81582757528464 2.223313955498273 0 0 0
1597 13 1 5.053868667612597 19.63141176674123 3.272900461961359 0 0 0
1598 13 1 5.763701982574406 18.76326728297168 4.331831237087508 0 0 0
1599 13 1 6.533367848560268 19.465799419621582 5.476533585704747 0 0 0
1600 13 1 7.231351713427989 18.66848216391048 6.5965325946086635 0 0 0
1638 15 1 11.425275130972409 21.271714217627036 6.261029047351809 0 0 0
1639 15 1 12.416996166465555 22.07128813860798 7.082975722011271 0 0 0
1640 15 1 12.780934692444475 21.363696606818113 8.38195498866988 0 0 0
1641 15 1 13.805974332476021 22.109385485013526 9.178530963612815 0 0 0
1642 15 1 14.201040820437898 21.429638790775645 10.45522578386888 0 0 0
1643 15 1 14.947016093017453 22.262015219617883 11.509912041828336 0 0 0
1644 15 1 15.183991599130433 21.54980461648319 12.822338054122879 0 0 0
1645 15 1 16.26657415349684 22.18262592756825 13.70877714762278 0 0 0
1646 15 1 16.380867826570665 21.410811352277857 15.01980117958617 0 0 0
1647 15 1 17.606798905089278 21.815995523082286 15.85752859998505 0 0 0
1648 15 1 17.84061841401421 21.005141623753598 17.14375324416258 0 0 0
8310 49 1 4.836327000941692 23.29098661308375 17.613039910268267 0 0 0
8313 49 1 6.043077595759919 23.518873690334328 21.335059829744193 0 0 0
1670 15 1 7.87945618449326 21.85576508753297 1.1353869552347375 0 0 0
1671 15 1 8.167680785192966 21.254703762567072 2.499705299671184 0 0 0
1672 15 1 9.268112654304176 21.973753018945498 3.206504441191021 0 0 0
1673 15 1 9.897792809468493 21.198432570422234 4.332623426743122 0 0 0
1674 15 1 10.945344162887887 22.009008642681373 5.0271001317021025 0 0 0
1675 16 1 7.556742930338741 23.88164650552581 7.89675064938088 0 0 0
1676 16 1 8.88427587918222 23.389461743845967 8.53767110589061 0 0 0
1677 16 1 8.955186076369383 23.902561079186057 9.990306575498778 0 0 0
1678 16 1 10.135861564333513 23.39197733855796 10.88034896630652 0 0 0
1679 16 1 10.063081592395848 23.665158746927116 12.401073132854677 0 0 0
1680 16 1 11.334177837791838 23.116028156209826 13.124707944781896 0 0 0
1681 16 1 11.390791842242397 23.5343782330704 14.637527551856238 0 0 0
1682 16 1 12.742907764028853 23.24780876258524 15.283996030671682 0 0 0
1683 16 1 12.691901115413044 23.47778346361243 16.799622312287386 0 0 0
1684 16 1 14.001714355192057 23.055611944006547 17.46107969010918 0 0 0
1685 16 1 14.104205315650287 23.445177318309526 18.891487436572646 0 0 0
1686 16 1 15.41851773154071 23.058101531408052 19.538567828895346 0 0 0
1687 16 1 15.491940755601746 23.442951629830773 20.991303461064135 0 0 0
1688 16 1 16.73542171860636 23.027205209562815 21.798657243677116 0 0 0
1689 16 1 16.809134242404895 23.54214296048793 23.254572100626216 0 0 0
8472 50 1 12.403810435126049 25.274991160588527 23.25053076171256 0 0 0
1892 16 1 2.755236060109619 23.512749025360204 0.19538729301573451 0 0 0
1893 16 1 2.8154975059156255 24.103643520450337 1.6637373308287489 0 0 0
1894 16 1 4.048772677523425 23.524476882974383 2.402803196088666 0 0 0
1895 16 1 4.47979616565039 24.112112145935257 3.7963925837007664 0 0 0
1896 16 1 5.564206665848497 23.405659880488386 4.508653449204348 0 0 0
1897 16 1 5.95141562914064 23.879888134739506 5.920996388055292 0 0 0
1898 16 1 7.1725207079301665 23.164726114188763 6.586765951466757 0 0 0
1899 18 1 10.306158962793763 25.755218383727925 5.952468063246897 0 0 0
1900 18 1 11.63063709846433 26.28729338006453 6.603769930346607 0 0 0
1901 18 1 11.709607650608374 26.03492816427429 8.09610739596937 0 0 0
1902 18 1 13.119471959645205 26.357577508016686 8.698454808186554 0 0 0
1903 18 1 13.041903721412034 25.98496863186636 10.145631497690768 0 0 0
1904 18 1 14.364120154797106 26.1297771577553 10.861204513283914 0 0 0
1905 18 1 14.178721167041653 25.974266100562193 12.334392384466772 0 0 0
1906 18 1 15.518541684995057 26.245338018035866 12.976520929614397 0 0 0
1907 18 1 15.450244570331321 25.92595703045955 14.474486775081958 0 0 0
1908 18 1 16.849045436768023 26.042161107730283 15.01512612223886 0 0 0
1909 18 1 16.95982092193009 25.840496584674415 16.543093877126882 0 0 0
8456 50 1 1.6343638947065084 25.129161118959754 5.983451266673968 0 0 0
8455 50 1 1.2779488941126431 25.729616222525227 4.664194341649893 0 0 0
7334 3 1 0.13905719609173173 11.992595706841955 3.3796690649496712 1 0 0
2119 18 1 7.481829964740217 25.62265590346307 1.6747470523661792 0 0 0
2120 18 1 8.853312004691093 26.001226241900763 2.323930289163293 0 0 0
2121 18 1 9.065959465473991 25.666326594142646 3.765016062438428 0 0 0
2122 18 1 10.265251755425803 26.29728665913084 4.510865013363587 0 0 0
2123 21 1 13.78248863702803 1.5430032693420588 3.710991030142273 0 0 0
2124 21 1 15.17350721887196 1.4192422179039585 4.396948986098129 0 0 0
2125 21 1 15.318576061438957 1.8327776702040055 5.8365074791198355 0 0 0
2126 21 1 16.566571854474958 1.3050687188350858 6.5886378542559125 0 0 0
2127 21 1 16.79208677848776 1.7067057271516972 8.060393361831213 0 0 0
2128 21 1 18.125376365403852 1.2341631594364821 8.672486093115829 0 0 0
2129 21 1 18.40828813728838 1.4986664919481427 10.163604662491668 0 0 0
2344 21 1 12.172489955808395 0.9608998779862804 0.15480552439739867 0 0 0
2345 21 1 12.412786540658159 1.4865977457052948 1.5657870206173599 0 0 0
2346 21 1 13.674505512307512 1.067192794113868 2.265476259598186 0 0 0
2347 55 1 17.568766680743597 3.3653450554163182 1.3448009289202165 0 0 0
8306 49 1 2.176575880916242 23.081175873225586 13.334999077199026 0 0 0
8471 50 1 12.371720583143455 25.556341990173205 21.76596293584516 0 0 0
1649 15 1 18.89278164819506 21.610517317300015 18.03264346712702 0 0 0
2571 19 1 13.543021127826885 5.886422739647576 3.568024468209777 0 0 0
2572 19 1 14.973710546995306 5.682332378600327 4.125978827234724 0 0 0
2573 19 1 14.98315907152126 6.0038604444338075 5.555059490535928 0 0 0
2574 19 1 16.341876704354075 5.655473587742893 6.265217495996807 0 0 0
2575 19 1 16.330646848405934 5.860448536657068 7.789431299584405 0 0 0
2576 19 1 17.773496629056687 5.665691771359058 8.293227476900986 0 0 0
2577 19 1 17.878861319241246 5.82659694667948 9.793576658751135 0 0 0
3100 24 1 11.887256052562918 9.678355189959541 0.4404352213449997 0 0 0
2793 19 1 12.254763952670901 5.878827554861239 1.4381819816048667 0 0 0
2794 19 1 13.570369568334247 5.590657305669935 2.0919126453239385 0 0 0
2795 22 1 17.264475940235315 8.046091963611445 1.9846509031941884 0 0 0
7333 3 1 0.06556732043655714 12.249978587452105 1.8963424867100733 1 0 0
8309 49 1 3.549957728010116 23.64448925073676 16.88894339491507 0 0 0
1351 13 1 18.77650125282615 17.179682940961857 17.98466671633245 0 0 0
2879 24 1 13.971047552848416 10.591778712590195 3.611825526464051 0 0 0
2880 24 1 14.894166496276858 9.777949052233565 4.492378094604568 0 0 0
2881 24 1 15.13588625838838 10.543953528809931 5.847235316957423 0 0 0
2882 24 1 16.276302228977645 9.911008139256847 6.667885238885695 0 0 0
2883 24 1 16.750932718049405 10.638565391250232 7.925939799393391 0 0 0
2884 24 1 17.92664357029713 9.91390642359823 8.602587548629744 0 0 0
2885 24 1 18.39098638448362 10.56197505557944 9.868361674490814 0 0 0
1637 53 1 6.70692154992932 21.277073724084183 0.3638472360861108 0 0 1
3101 24 1 12.624765283394439 10.516523783433708 1.4729506844630338 0 0 0
3102 24 1 13.272885596562908 9.711206419982465 2.593353794539954 0 0 0
3103 59 1 17.827302983733663 12.244458993581393 1.9202255829650945 0 0 0
8305 49 1 1.0677240513343798 23.702129487905182 12.474873110700724 0 0 0
5521 45 1 4.354613161770176 16.552682357194524 23.66427793155435 0 0 0
3326 59 1 17.24790795956041 13.09729271088766 0.7806134623302308 0 0 0
3327 63 1 13.850775248245348 15.20063898294689 3.8657278098716557 0 0 0
3328 63 1 15.299526337209395 14.865924608438835 4.372020330806798 0 0 0
3329 63 1 15.322306158024395 15.179532288471487 5.895363536547112 0 0 0
3330 63 1 16.49541250207116 14.541120466087854 6.649312597357707 0 0 0
3331 63 1 16.68570193484602 15.140605272681714 8.048786574969569 0 0 0
3332 63 1 17.79084306966806 14.477719739763753 8.884949967105769 0 0 0
3333 63 1 17.946111308278418 15.185197755006259 10.260857397921471 0 0 0
3548 63 1 12.270027768760837 14.464606590967172 0.4013442291977498 0 0 0
3549 63 1 12.350450269307625 15.026492496259884 1.7996860408656377 0 0 0
3550 63 1 13.698983711611364 14.745243172917062 2.38420203120517 0 0 0
3551 24 1 17.471589299265386 16.534915493903583 1.8598444070490276 0 0 0
6263 49 1 3.4474415302572456 25.24444649967958 23.595715211405135 0 0 0
8304 49 1 0.7515258974766836 22.98985240706796 11.150259175412318 0 0 0
237 22 1 18.427017947565126 3.2366187940418456 18.40567183445195 0 0 0
3625 18 1 14.027395732774682 19.78307538114004 4.095082349618506 0 0 0
3626 18 1 15.356140456317982 19.187610814660196 4.677901450621054 0 0 0
3627 18 1 15.320349455394384 19.442253105967733 6.213220199789625 0 0 0
3628 18 1 16.629922766894033 19.13467937033829 6.93705026777139 0 0 0
3629 18 1 16.506266062667827 19.3009536010109 8.445592842345295 0 0 0
3630 18 1 17.852940868607146 19.217370302964667 9.162289665782561 0 0 0
3631 18 1 17.855432191732973 19.254524830512764 10.68401269029867 0 0 0
8308 49 1 3.404399288708786 22.887255544725793 15.60123539390619 0 0 0
3847 18 1 12.529688245511977 19.629175786587574 1.9470602711974272 0 0 0
3848 18 1 13.607461720351607 18.99774305574717 2.8326500268389436 0 0 0
3849 31 1 16.8605651607241 21.266476599276178 1.9233055122648002 0 0 0
3850 31 1 18.24468530291904 21.503074687904107 2.4610786443625488 0 0 0
8307 49 1 2.2390793922157193 23.469733593893075 14.804456359511633 0 0 0
4294 6 1 12.0146546740586 23.364581980655974 0.2857252837069988 0 0 0
4073 6 1 13.771252067776425 24.046834813693422 3.7521256064518407 0 0 0
4074 6 1 15.072309813556723 23.662316265742618 4.425795481852469 0 0 0
4075 6 1 15.104505758611692 24.197135938916972 5.85093422238862 0 0 0
4076 6 1 16.390300360002232 23.708088290838532 6.552786155358019 0 0 0
4077 6 1 16.562113845259432 24.301945285047918 7.960014315107181 0 0 0
4078 6 1 17.83721101039829 23.936196549893715 8.753099833998277 0 0 0
4079 6 1 17.862003838158913 24.260205375510868 10.22244409314061 0 0 0
3851 31 1 18.329292880338926 21.217257268098535 3.9967563233371783 0 0 0
4295 6 1 12.35835911134081 23.882552858473513 1.7109027854884886 0 0 0
4296 6 1 13.75438194338963 23.62307725326107 2.3257711741472518 0 0 0
4297 32 1 17.045255104198866 25.409427930142172 1.364920941672239 0 0 0
1352 13 1 18.933612232308164 16.605759249644898 19.42957208876778 0 0 0
8312 49 1 6.031740717073046 23.14675980790018 19.84308567865008 0 0 0
4298 32 1 18.285979548186926 26.00063892013297 2.0210686538058114 0 0 0
4613 38 1 1.6532466455734927 3.6026862670001005 20.049668845528082 0 0 0
4614 38 1 1.7675748875731316 2.912915501646594 21.4279605040889 0 0 0
4615 38 1 2.918611148155347 3.446938401395585 22.27966236488429 0 0 0
3104 59 1 18.445498398863958 13.094442489265104 3.0741932536642884 0 0 0
8314 49 1 7.379935110377813 23.24116482644301 22.073875250131795 0 0 0
4913 38 1 1.3787461091276758 7.634215201598606 19.996103157343654 0 0 0
4914 38 1 1.4515195652495443 7.110261963997963 21.416049010882986 0 0 0
4915 38 1 2.7378478510610558 7.454457872106616 22.103551052668855 0 0 0
4916 38 1 2.704688819390462 7.194926266586174 23.587890155027363 0 0 0
8315 49 1 7.486870056131322 23.609123443137676 23.541255295617727 0 0 0
5219 42 1 1.6492022921846492 12.19129618921105 19.48262710032951 0 0 0
5220 42 1 1.7358516059550977 11.668385937834516 20.854387266448633 0 0 0
5221 42 1 2.7915531123133643 12.30731818031025 21.68664403987583 0 0 0
5222 42 1 2.893278807641387 11.705835178877514 23.021579152189915 0 0 0
8462 50 1 5.464490772149612 25.386034831733355 12.622407840414937 0 0 0
5517 45 1 1.727573472940778 16.44483748371196 19.22438621355935 0 0 0
5518 45 1 1.773215060256648 16.302642410384294 20.752679310453946 0 0 0
5519 45 1 3.161580223680683 16.464880061221702 21.389360215086853 0 0 0
5520 45 1 3.025354646203437 16.445852421824256 22.90152149020527 0 0 0
1074 12 1 7.427509249916201 12.911967447202844 0.5015987316433874 0 0 0
5965 48 1 1.6179915657009079 20.970744617300653 19.191976692212684 0 0 0
5966 48 1 1.6731497388788013 20.48544679932055 20.666067692806852 0 0 0
5967 48 1 2.896671870972306 21.030731993598383 21.51893376681479 0 0 0
5968 48 1 2.9851889407466174 20.592645715131198 22.966160876231047 0 0 0
8461 50 1 5.3735264449802616 26.051445593241027 11.19556895830815 0 0 0
6260 49 1 1.7850140946308009 26.08898636093639 20.015249390565103 0 0 0
6261 49 1 2.3853259737260086 25.30606550022854 21.21881204536471 0 0 0
6262 49 1 3.084418400372013 26.062295855517267 22.345398916552913 0 0 0
6999 58 1 0.17043004812536183 7.37981923442481 4.040467111906173 1 0 0
8460 50 1 4.559109099969285 25.23159097818733 10.182356844314246 0 0 0
6332 50 1 1.2158514899196309 0.9467962078978974 11.364123461198751 0 0 0
6333 50 1 1.4902272808157528 1.5677246667219535 12.700647687739362 0 0 0
6334 50 1 2.4687132547717447 0.844061016204217 13.635091723524065 0 0 0
6335 50 1 2.561816052373674 1.4642699439385123 15.020142599669153 0 0 0
6336 50 1 3.5594465749012 0.7014759240060051 15.869689165719219 0 0 0
6337 50 1 3.7931678051923017 1.2514002614679482 17.247053671726544 0 0 0
6338 50 1 5.012873154069802 0.6970379794892042 17.984095619609114 0 0 0
6339 50 1 5.0168196035759145 1.2092996702781877 19.423874028488846 0 0 0
6340 50 1 6.33622127067352 0.8690276920406391 20.11630614195448 0 0 0
6341 50 1 6.328315087291619 1.2775574464491337 21.603796510167594 0 0 0
6342 50 1 7.714263646183658 0.955944198248936 22.192209394642138 0 0 0
8080 63 1 0.25006399086767633 21.25633621524876 3.741237278709926 1 0 0
8470 50 1 10.957385870075067 25.46081724154631 21.220676286579994 0 0 0
6552 52 1 1.3682321084247508 3.937994616467998 4.723257173028878 0 0 0
6553 52 1 1.8100721670823101 3.147252316157704 5.967666207104816 0 0 0
6554 52 1 2.6153026565352415 3.9166700032146857 7.042531953194595 0 0 0
6555 52 1 2.879892166610511 3.1170790199518312 8.360740634043765 0 0 0
6556 52 1 3.9177676223695332 3.830020967322663 9.227194167691806 0 0 0
6557 52 1 4.251877277870648 3.115146949508879 10.561697440594049 0 0 0
6558 52 1 5.353050905726684 3.6419416506787785 11.417874219949145 0 0 0
6559 52 1 5.473147247046313 2.909182397358102 12.823221780132142 0 0 0
6560 52 1 6.83204864376048 3.1852477002215744 13.448488988411915 0 0 0
6561 52 1 7.010304616986061 2.838162069135382 14.917968723108974 0 0 0
6562 52 1 8.207754883873225 3.4969129736987132 15.63778993705293 0 0 0
6563 52 1 8.374580008723438 3.0614982689766355 17.068489292790275 0 0 0
6564 52 1 9.613753621467035 3.5187548949517957 17.892361769752277 0 0 0
6565 52 1 9.725458522814305 3.200013812123737 19.375605381742165 0 0 0
6566 52 1 11.034999872374335 3.5579202506620553 20.078326170571973 0 0 0
6567 52 1 11.112628353531294 3.1549319374574183 21.50476015108603 0 0 0
6568 52 1 12.51039489105336 3.4433932718306535 22.05110575760954 0 0 0
6569 52 1 12.51106601439403 3.250103075514221 23.53136468991773 0 0 0
6259 49 1 0.9741468220582854 25.27589360404181 18.991972410626104 1 0 0
6780 32 1 0.7925345207564212 5.12082444917647 11.443922455542634 0 0 0
6781 32 1 1.311971110679059 5.8841739781745055 12.628854082179641 0 0 0
6782 32 1 2.3887180131612267 5.189730252807671 13.4935666319307 0 0 0
6783 32 1 2.467149319400937 5.8151049144776294 14.867447933837411 0 0 0
6784 32 1 3.703808770326737 5.394277249071148 15.688198969378584 0 0 0
6785 32 1 3.7368418611011562 5.837599737385473 17.130149543102252 0 0 0
6786 32 1 4.862528497488132 5.174353443082972 17.937686358751485 0 0 0
6787 32 1 4.906374809914621 5.634224239858316 19.386021350816126 0 0 0
6788 32 1 6.179180438036811 5.1217021804911935 20.032158731721793 0 0 0
6789 32 1 6.3889491165548655 5.6473821406132005 21.436326014625585 0 0 0
6790 32 1 7.61505195361255 5.160939074898227 22.187534114709017 0 0 0
6551 52 1 0.3475617369612735 3.1770858014871934 3.813411460836885 1 0 0
8459 50 1 4.049345756135412 25.999274085913417 8.936998329471463 0 0 0
7000 58 1 1.3902410809861534 7.990749354094441 4.800093253191154 0 0 0
7001 58 1 1.5213184538771594 7.5904381007614035 6.249610253178057 0 0 0
7002 58 1 2.8109804070498576 8.140297601493957 6.914752342095621 0 0 0
7003 58 1 2.838298681852746 7.829317151798506 8.452615543407775 0 0 0
7004 58 1 4.224117604861432 7.836693866523584 9.033077759359005 0 0 0
7005 58 1 4.263986594857999 7.374331613954915 10.474293405155208 0 0 0
7006 58 1 5.585689919695062 7.601303780940949 11.233410392413441 0 0 0
7007 58 1 5.53830040902226 7.3416876684500005 12.726891978971736 0 0 0
7008 58 1 6.837725582203098 7.618707525646608 13.55520103280261 0 0 0