LAMMPS data file via write_data, version 29 Oct 2020, timestep = 32000000

10752 atoms
2 atom types
10752 bonds
3 bond types
10752 angles
3 angle types
10752 dihedrals
3 dihedral types

-1.4019591925125496e-01 3.1008115919238300e+01 xlo xhi
-1.2113307625790526e-01 2.6791853076229280e+01 ylo yhi
 3.6545291201065012e+01 2.4645406879831549e+02 zlo zhi

Masses

1 14
2 15

Pair Coeffs # lj/cut/omp

1 0.0914 3.95
2 0.1947 3.75

Bond Coeffs # harmonic/omp

1 449.5 1.53
2 449.5 1.53
3 449.5 1.53

Angle Coeffs # harmonic/omp

1 62.0967 114
2 62.0967 114
3 62.0967 114

Dihedral Coeffs # opls/omp

1 1.411 -0.271 3.145 0
2 1.411 -0.271 3.145 0
3 1.411 -0.271 3.145 0

Atoms # molecular

1            1            1      26.8654      22.7341      37.9946
2            1            1      26.3414       24.151      37.9373
3            1            1      25.6011      24.2725      39.2262
4            1            1       25.192      22.9297      39.8076
5            1            1      25.0211      23.2446      41.2923
6            1            1      24.2664      24.5768      41.3114
7            1            1      23.8201       24.685      42.7415
8            1            1      22.9796      23.4104      43.0152
9            1            1      22.4003      23.5689      44.4049
10            1            1      23.3215      24.2934      45.3857
11            1            1      22.5751      24.5123      46.6701
12            1            1      23.3777      25.5603      47.6058
13            1            1      22.6342      25.9756      48.8052
14            1            1       23.271     0.121142      49.6812
15            1            1      24.3678      26.3905      50.5585
16            1            1      24.6922     0.425407       51.719
17            1            1      25.3254    -0.126864      52.9081
18            1            1      25.3908     0.975009      53.9077
19            1            1      26.3344     0.716844      55.0425
20            1            1      26.4881      1.94234      55.8863
21            1            1      27.7685         1.98      56.7277
22            1            1      27.7026      2.88687      57.9613
23            1            1      28.2932      1.98749      59.0455
24            1            1      28.1501      2.95437      60.1465
25            1            1      29.3605      3.29108      61.0102
26            1            1      29.0962      4.25553      62.1191
27            1            1      27.9809      3.78772      63.0943
28            1            1      27.4732      4.88662      64.0524
29            1            1       26.393      4.32439      64.9272
30            1            1      26.0354      5.32477      66.0214
31            1            1      24.8709      4.79601      66.8962
32            1            1      24.8611         5.88      67.9476
33            1            1      23.9261      5.76215      69.0261
34            1            1      24.0223      6.92715      70.0283
35            1            1      23.1086      6.88188        71.24
36            1            1      23.0652      5.44933      71.7472
37            1            1      22.2911      5.27889      73.0082
38            1            1      21.4022      6.54548      73.1055
39            1            1      20.5684      6.19717      74.3067
40            1            1      21.3075      5.35085      75.3056
41            1            1       20.418      4.59576      76.1876
42            1            1      21.1252      3.99608      77.3461
43            1            1      20.1237      3.05997      78.0982
44            1            1      20.9295      2.43577      79.1874
45            1            1      21.8139       3.5581      79.7979
46            1            1      22.7179      3.01584      80.9007
47            1            1       22.598      1.54096      81.1231
48            1            1      23.0513      1.26602      82.5325
49            1            1      24.0496      2.38423      82.7706
50            1            1      24.5095      2.35157      84.2079
51            1            1      24.6633     0.895896      84.7079
52            1            1      25.0603     0.633106      86.1129
53            1            1      26.4635      1.14622      86.4794
54            1            1      27.0168     0.834134      87.8315
55            1            1      26.7053       26.248      88.0956
56            1            1      27.5285      25.8029      89.3237
57            1            1      28.3256     0.191008       89.771
58            1            1      29.2458      26.5807      90.8356
59            1            1      28.7141       25.448      91.6785
60            1            1       29.812      24.9471      92.5847
61            1            1      30.4155      26.1489      93.3926
62            1            1     0.120877      25.5859      94.5132
63            1            1     0.415518        26.57      95.6368
64            1            1      30.3225      26.5215      96.4442
65            1            1      30.3032     0.869731      97.2702
66            1            1       29.244     0.701194      98.4126
67            1            1      29.6786      26.3429      99.2724
68             1             1       28.6206       26.3862       100.338
69             1             1       28.6677       25.4037       101.426
70             1             1        27.532       25.4363       102.383
71             1             1       27.6957       24.2999       103.253
72             1             1       26.5088       24.0805       104.116
73             1             1       26.3132       25.0191       105.243
74             1             1       27.4961        24.933       106.179
75             1             1       27.4664       25.8326       107.429
76             1             1       28.6342       25.8543       108.311
77             1             1       28.5556     0.0967398       109.251
78             1             1       29.6805      0.562265       110.092
79             1             1       29.9206       26.2824       111.079
80             1             1     -0.112312       26.6033       112.058
81             1             1     0.0972703       25.6178       113.092
82             1             1       29.9325       25.1999       113.696
83             1             1       30.1242       24.8308       115.126
84             1             1      0.439799       24.5471       115.298
85             1             1      0.444214        23.651       116.499
86             1             1       30.1227       23.4159       116.969
87             1             1       30.0195       22.6557       118.237
88             1             1       28.6768       22.2217       118.766
89             1             1         28.35       23.3708       119.707
90             1             1       29.5521       23.6356        120.69
91             1             1       29.4277       24.7592        121.65
92             1             1       30.5948       24.7214       122.554
93             1             1       30.3196       25.9336       123.341
94             1             1     0.0850821       25.8246       124.609
95             1             1      0.308381      0.250557       125.238
96             1             1       1.44109     0.0490221        126.23
97             1             1       1.29477       25.7285       127.061
98             1             1        2.5756       25.4853       127.946
99             1             1       2.50828       24.4579       129.006
100             1             1       3.62646       24.3744       129.978
101             1             1       3.73829       23.0946       130.868
102             1             1       4.95348       23.1824       131.876
103             1             1       4.92103       21.9624       132.798
104             1             1       5.94837       21.9833       133.931
105             1             1       6.00455       23.2546       134.795
106             1             1       7.25114       23.4296       135.634
107             1             1       7.21468       24.5924       136.662
108             1             1       8.57109       24.3769       137.282
109             1             1       8.73696       25.3337        138.43
110             1             1       7.71308        25.067       139.421
111             1             1       7.55272       26.3079       140.306
112             1             1       6.71184       26.0652       141.517
113             1             1       6.74097       0.49746       142.208
114             1             1       5.91429      0.347179       143.457
115             1             1       5.69861       1.58248       144.471
116             1             1       5.14115       1.18506       145.824
117             1             1       4.41026       2.20484       146.621
118             1             1       3.93789       1.81936       148.081
119             1             1       2.62826       1.20399       148.269
120             1             1       2.40813        1.2738       149.764
121             1             1       2.78921       2.68247       150.224
122             1             1       2.51856       3.04567       151.672
123             1             1       3.52924       2.50103       152.635
124             1             1       3.98683       3.60313       153.556
125             1             1       2.97402       4.04885       154.542
126             1             1       3.61995       5.07196       155.433
127             1             1       2.67451       5.60555       156.435
128             1             1       3.38546       6.59016       157.304
129             1             1       4.37938       5.78315       158.104
130             1             1       5.01673       6.78619       159.101
131             1             1       3.89683       7.38984       159.994
132             1             1       4.39736        8.4073       160.972
133             1             1       3.54881       8.57338       162.185
134             1             1       4.09539       9.68251       163.077
135             1             1       5.44153       9.21596       163.619
136             1             1       6.20058       10.1966       164.535
137             1             1       5.18579        10.561       165.531
138             1             1       5.80863       11.2897       166.699
139             1             1       4.83604       12.0663       167.532
140             1             1       5.50535       12.7486       168.723
141             1             1       5.59522       11.5974       169.674
142             1             1       6.52274       11.8659       170.903
143             1             1       6.80055       10.6894       171.764
144             1             1       7.32478       10.9699       173.109
145             1             1        8.0469       12.2596       172.997
146             1             1       8.65607       12.5572       174.319
147             1             1       9.01411       11.2693       175.011
148             1             1       9.47669       11.6398        176.43
149             1             1         10.27        12.845        176.51
150             1             1       11.4341       12.3304       177.368
151             1             1        10.887       11.3959       178.498
152             1             1       12.0015        10.669       179.026
153             1             1       11.5466       10.1576       180.369
154             1             1       9.99327       9.81383       180.413
155             1             1       9.42828       9.43451       181.795
156             1             1       10.5293       8.68244       182.538
157             1             1       10.0639       7.87526       183.715
158             1             1        9.2487       8.93534       184.506
159             1             1       8.89524       8.32201       185.841
160             1             1       7.94003       9.21319       186.623
161             1             1        7.6986       8.37674       187.827
162             1             1       8.43385       7.05324       187.811
163             1             1       8.61688       6.30261       189.072
164             1             1       7.24247       6.16519       189.609
165             1             1       7.14835       5.05724       190.689
166             1             1       8.23349       5.31381       191.742
167             1             1       8.06851       4.29789       192.831
168             1             1       9.30414        4.7127       193.699
169             1             1       9.54706       3.68374       194.712
170             1             1       10.6868       4.07399       195.698
171             1             1       10.8352       2.84136       196.704
172             1             1       12.1057       2.91256       197.358
173             1             1       11.9777       2.03334       198.559
174             1             1       13.1411       2.09821       199.558
175             1             1       13.1105       1.15033       200.736
176             1             1       11.8092       1.39116       201.508
177             1             1       12.0542      0.484472       202.702
178             1             1       10.6873      0.151854       203.273
179             1             1       10.9633       26.2325       204.507
180             1             1       12.2858       25.5462       204.368
181             1             1       12.5615       24.7496       205.688
182             1             1       11.5728       25.2248       206.717
183             1             1       11.5894       24.0247       207.626
184             1             1       10.5702       24.1874       208.686
185             1             1       10.4491       22.9496       209.644
186             1             1       9.56692       23.1201       210.918
187             1             1       9.18649       21.7961       211.378
188             1             1       8.37352       21.8628       212.663
189             1             1       9.13621       22.8581       213.581
190             1             1       8.27154       23.0684       214.818
191             1             1       8.95607       23.9381        215.82
192             1             1       10.2681       23.1772       216.112
193             1             1       10.8635       23.5383       217.425
194             1             1       9.84361       23.4426       218.449
195             1             1       9.64625       22.0544       219.097
196             1             1       8.93243        22.257       220.409
197             1             1       9.01602       21.0561       221.307
198             1             1       8.05767       20.9786       222.499
199             1             1       8.16292        19.831        223.34
200             1             1       6.93153       19.8051       224.292
201             1             1       7.08004       18.7685       225.316
202             1             1       5.96728       18.6151       226.346
203             1             1       5.75238       19.8821       227.119
204             1             1       4.64087       19.7486       228.158
205             1             1       4.94558       18.7571       229.201
206             1             1       4.42898       19.2324       230.486
207             1             1       2.91712       19.4668       230.276
208             1             1       2.60116       20.2061       231.582
209             1             1       3.85438       20.7563       232.258
210             1             1       3.74736       21.8225       233.327
211             1             1       2.65919       21.6702       234.248
212             1             1       2.92642         22.88       235.157
213             1             1        1.8147       23.0824       236.167
214             1             1       1.75107       24.2639        237.02
215             1             1      0.767627       24.0988       238.175
216             1             1      0.873386       25.3122       239.122
217             1             1       30.8007       25.2536       239.976
218             1             1       31.0361       26.3312        241.02
219             1             1       29.9492       26.2728       242.158
220             1             1       30.2447       25.1152       243.092
221             1             1       28.9797       25.0496       243.966
222             1             1        29.017       23.8262       244.936
223             1             1       27.9064       23.9232        245.95
224             1             1       28.0299        22.811       37.0711
225             2             1       1.62752      0.554478       244.557
226             2             1       1.43414        26.217       245.249
227             2             1      0.382785       26.2238       246.391
228             2             1      0.339517       24.8737       37.1765
229             2             1       30.6066       25.1315       38.4311
230             2             1       30.3922       23.9556       39.3348
231             2             1       29.4453       24.2725       40.4052
232             2             1       29.0063       25.6594       40.1216
233             2             1       28.2301       26.1084       41.2907
234             2             1       27.8912       24.9801       42.1299
235             2             1       27.2507       25.5388       43.3265
236             2             1       27.8323     0.0110986       43.5426
237             2             1       27.8308      0.310287       45.0356
238             2             1       26.3666       0.17784        45.407
239             2             1       26.0479      0.470804       46.8782
240             2             1       27.0629       1.45001       47.3967
241             2             1       26.7482       1.44521       48.8825
242             2             1        27.472       2.54919       49.6261
243             2             1       28.0329       2.00821       50.9047
244             2             1       28.6949       2.98516       51.7181
245             2             1       29.0273       2.65556       53.1505
246             2             1       29.8168       3.70451       53.9325
247             2             1       30.2316        3.0732        55.241
248             2             1       30.5383       4.21278       56.2783
249             2             1      0.252503       3.60088       57.3888
250             2             1      0.398689       4.75392       58.3217
251             2             1       1.52745       4.32582       59.3528
252             2             1       2.00147       5.39984       60.2116
253             2             1        1.2092       5.69432       61.4172
254             2             1        1.5565       6.96406       62.2311
255             2             1      0.384103       7.19251       63.1895
256             2             1      0.270687          6.03       64.0663
257             2             1        30.248       6.41771       65.0169
258             2             1       30.3994       7.79392       65.7215
259             2             1       29.8819       8.03274       67.1436
260             2             1       28.3712       7.49216       67.1539
261             2             1       27.9425       7.82636       68.5525
262             2             1       28.4328       9.06489       69.1159
263             2             1       27.5543       9.60613       70.2507
264             2             1       27.2112       8.49371       71.1461
265             2             1       26.0407       8.84692       72.0012
266             2             1       25.8187       7.79233       73.1378
267             2             1        24.616       8.25159       73.9989
268             2             1       24.5598       7.20443        75.095
269             2             1       25.6154       7.47398       76.1474
270             2             1       25.5647       6.35489       77.0942
271             2             1       24.2258       5.79919       77.2893
272             2             1       24.3049       4.98975       78.4998
273             2             1       25.3477       5.70418       79.3741
274             2             1       25.6645       4.78264       80.5262
275             2             1        26.911       5.08079       81.3369
276             2             1       27.2936        3.9311       82.1808
277             2             1       28.0981       4.28763       83.4442
278             2             1       28.4214       3.27112       84.3494
279             2             1       29.3526        3.7663       85.4646
280             2             1       29.5161       2.61854       86.5089
281             2             1        30.474       2.90985       87.5968
282             2             1       30.9219       1.84313       88.5174
283             2             1      0.775382       2.31496       89.4949
284             2             1      0.957143       1.11414       90.4479
285             2             1       2.21333       1.31418       91.3873
286             2             1       2.14682       0.35491        92.512
287             2             1       3.44806       0.26912       93.2829
288             2             1        3.5115       1.33987       94.2701
289             2             1       4.79349       1.29885       95.1124
290             2             1       4.73836       2.39314       96.1898
291             2             1       3.39663       2.10173       96.9602
292             2             1       3.22715       3.17293       98.0229
293             2             1       2.03317       3.00692       98.8562
294             2             1        1.9902        1.7742       99.6259
295             2             1      0.952974       1.85953       100.774
296             2             1       1.11717      0.513226       101.449
297             2             1    0.00202721      0.299004       102.481
298             2             1        0.1182       25.9616       103.272
299             2             1       30.3805       26.2163        104.43
300             2             1       30.9544      0.628883       104.937
301             2             1       30.1117       1.09043       106.183
302             2             1       30.9355       1.83216       107.106
303             2             1      0.943763      0.985891         107.4
304             2             1       1.30267       1.32734       108.806
305             2             1       1.36397           2.8       108.935
306             2             1       2.31631       3.16433       109.864
307             2             1       2.29834         2.117       110.945
308             2             1       3.32135       2.26764       112.018
309             2             1       3.10005       1.30707       113.131
310             2             1        4.0152       1.34254       114.294
311             2             1        3.5589      0.271876       115.283
312             2             1       4.63044      0.141998       116.292
313             2             1       4.25152       26.2729       117.486
314             2             1       2.91016       26.5372       118.048
315             2             1       2.43913        25.293       118.753
316             2             1       1.15772       25.2538       119.528
317             2             1        1.3095        26.465       120.392
318             2             1       2.30376        26.254       121.472
319             2             1       2.48094      0.575901       122.294
320             2             1       3.67979       0.64461       123.202
321             2             1       3.34036       1.89459       123.971
322             2             1       4.40031        1.9082       125.067
323             2             1        4.7458       0.54757       125.596
324             2             1       5.63037      0.672488       126.834
325             2             1       5.66818       26.4001       127.687
326             2             1       6.55645       26.7223       128.777
327             2             1       6.75015       25.5429        129.74
328             2             1        7.9816       25.5071       130.685
329             2             1       7.99034       24.2959       131.585
330             2             1       9.14352       24.3869       132.551
331             2             1       9.27402       25.7253       133.254
332             2             1       10.1905        25.575       134.447
333             2             1        10.556       26.9224       134.936
334             2             1        11.404       26.6347       136.187
335             2             1       11.4398        1.0088       136.983
336             2             1       12.6973       1.10902       137.847
337             2             1       12.7402       26.8056       138.706
338             2             1         11.55       26.7338       139.666
339             2             1       11.2785       1.10339       140.344
340             2             1       10.4645      0.867553        141.63
341             2             1       10.0497       2.23349       142.128
342             2             1       9.71296       2.19898       143.649
343             2             1       9.03407       3.46626       144.137
344             2             1       8.52184       3.12082       145.542
345             2             1       8.19732       4.36002       146.412
346             2             1       7.41479       3.88326       147.556
347             2             1       7.17493       4.96251       148.547
348             2             1       5.95896       4.71872       149.333
349             2             1       6.17262       3.56254        150.33
350             2             1       7.05304       3.97753       151.536
351             2             1       6.42929        5.2813       151.996
352             2             1       7.04435       5.82868       153.303
353             2             1       6.34706       7.08452       153.703
354             2             1       6.61962       7.11695       155.183
355             2             1       8.12891       7.36498        155.49
356             2             1       8.40114       7.46985       156.953
357             2             1       7.85569       8.68898       157.591
358             2             1       8.18538       8.63503        159.03
359             2             1       7.37847       9.83117       159.602
360             2             1       7.67268       10.0521       161.074
361             2             1        9.1642       10.0285       161.236
362             2             1       9.45651       10.2055       162.669
363             2             1       8.96516       11.5832        163.11
364             2             1       9.16307       11.6193       164.607
365             2             1       8.53376       12.9266       165.014
366             2             1       9.19982       13.4183       166.295
367             2             1       8.40415       14.4116       166.938
368             2             1       8.90887       14.7093       168.248
369             2             1       9.06878       13.4219       168.975
370             2             1       9.53695        13.711       170.385
371             2             1       10.1648       15.0996       170.401
372             2             1       10.7322       15.4753       171.728
373             2             1       11.0966       14.2389       172.588
374             2             1       11.6752       14.4541       173.919
375             2             1       12.4625       15.7139       173.735
376             2             1       13.4252       15.9739       174.932
377             2             1       13.3262       14.7611       175.821
378             2             1        14.399       14.8912       176.924
379             2             1       14.5033       13.6918       177.807
380             2             1       15.7293        13.679       178.702
381             2             1       15.9246        12.521       179.684
382             2             1       14.6359       12.4393       180.486
383             2             1       14.9226       11.4892       181.627
384             2             1       13.7061       11.3846       182.633
385             2             1       13.8034       10.2919       183.708
386             2             1       12.8531       10.4564       184.828
387             2             1        13.222        9.4297       185.865
388             2             1       12.0612       9.23667       186.755
389             2             1       11.8342       10.5044       187.424
390             2             1       11.0116         10.05       188.562
391             2             1       11.6972       8.94249       189.261
392             2             1       10.9397       8.31675       190.379
393             2             1       11.7867       7.26796       191.086
394             2             1       12.2272       7.67835       192.454
395             2             1       13.3984       6.93545        193.04
396             2             1        12.965       5.60767       193.515
397             2             1       13.8574       4.88411       194.466
398             2             1       14.1683       5.87706       195.578
399             2             1       15.3762       5.34676        196.36
400             2             1       15.1922       4.34263       197.546
401             2             1       16.3697        4.4122       198.432
402             2             1       16.1303       3.45386       199.584