LAMMPS data file via write_data, version 29 Oct 2020, timestep = 32000000

10752 atoms
2 atom types
10752 bonds
3 bond types
10752 angles
3 angle types
10752 dihedrals
3 dihedral types

-1.4019591925125496e-01 3.1008115919238300e+01 xlo xhi
-1.2113307625790526e-01 2.6791853076229280e+01 ylo yhi
 4.9975112486728790e+00 2.7800184875061677e+02 zlo zhi

Masses

1 14
2 15

Pair Coeffs # lj/cut/omp

1 0.0914 3.95
2 0.1947 3.75

Bond Coeffs # harmonic/omp

1 449.5 1.53
2 449.5 1.53
3 449.5 1.53

Angle Coeffs # harmonic/omp

1 62.0967 114
2 62.0967 114
3 62.0967 114

Dihedral Coeffs # opls/omp

1 1.411 -0.271 3.145 0
2 1.411 -0.271 3.145 0
3 1.411 -0.271 3.145 0

Atoms # molecular

1            1            1      17.1483     0.650415      6.75766
2            1            1      16.5279      1.34324      7.98724
3            1            1      16.2577     0.485219      9.20663
4            1            1       15.488      1.17991      10.3838
5            1            1      15.2727      0.28143      11.5714
6            1            1      14.5062     0.970622      12.6977
7            1            1       14.617     0.296372      14.0326
8            1            1      13.8595      1.02307      15.1803
9            1            1      13.8058     0.196944      16.4303
10            1            1      13.0292     0.971831      17.4499
11            1            1      13.0741     0.273864      18.8299
12            1            1      12.1382     0.844123      19.9135
13            1            1      11.9848     0.198084      21.2927
14            1            1      11.4874      1.08091      22.4111
15            1            1      11.1981     0.475951      23.7443
16            1            1      10.6831        1.344      24.8772
17            1            1      10.2121     0.392187      26.0127
18            1            1      9.95334      1.25897      27.3075
19            1            1      9.68713      0.46204      28.5849
20            1            1       9.0464      1.18551      29.8131
21            1            1      8.88883     0.296525      31.0583
22            1            1      8.15631     0.983139      32.2017
23            1            1      7.87834     0.210398       33.478
24            1            1      7.09091      1.06764      34.5428
25            1            1      6.93501     0.254946      35.8027
26            1            1       6.2997      1.09379      36.9547
27            1            1      6.03513     0.337243      38.2344
28            1            1        5.496      1.08694      39.4484
29            1            1      5.18425     0.236709      40.6636
30            1            1      4.78507      1.10708      41.8436
31            1            1      4.50298     0.351477      43.1175
32            1            1      3.65507      1.14727       44.117
33            1            1      3.47492     0.557945      45.4994
34            1            1      2.50767      1.29632      46.4476
35            1            1      2.82696     0.891192       47.883
36            1            1      2.03869      1.69485      48.8949
37            1            1      2.04446      1.00986      50.2313
38            1            1      1.20356      1.85747       51.192
39            1            1       1.3004       1.1829       52.512
40            1            1      0.45342      1.91166      53.6053
41            1            1     0.569456      1.32561       55.089
42            1            1      30.8348       2.1229      56.0886
43            1            1       31.026      1.35915      57.4211
44            1            1      30.2765      1.86121      58.6291
45            1            1      30.4458      1.17619       59.971
46            1            1      29.6111      1.83961      61.0527
47            1            1      29.6749      1.28614       62.466
48            1            1      28.7551       2.0298      63.3724
49            1            1      29.0396      1.53159      64.7696
50            1            1      28.1108       2.1977      65.7787
51            1            1      28.2155      1.58291      67.2013
52            1            1      27.3527      2.28126      68.2728
53            1            1      27.5997      1.79147       69.692
54            1            1      26.6332      2.32973      70.7287
55            1            1       26.925      1.73625      72.1627
56            1            1      25.8231      2.01751      73.1775
57            1            1       26.115      1.47207       74.607
58            1            1       25.084      2.03073       75.587
59            1            1      25.3196      1.54609      76.9979
60            1            1      24.4552       2.1218      78.1097
61            1            1      24.5156        1.475      79.5205
62            1            1      23.7555      2.23116      80.6372
63            1            1      23.2947      1.37734      81.8229
64            1            1      22.6874      2.12944      82.9999
65            1            1      22.5275      1.20658       84.226
66            1            1      21.9875      1.85324      85.5264
67            1            1      21.9759      1.15108      86.8444
68            1            1      21.4993      2.06151      87.9452
69            1            1       21.407      1.26628      89.2909
70            1            1      20.8969      2.10031      90.4966
71            1            1      20.6723      1.29587      91.7949
72            1            1      19.9353      1.93446      92.9198
73            1            1      19.9488      1.11003      94.2215
74            1            1      19.2255      1.87376      95.3192
75            1            1      19.1125        1.103       96.626
76            1            1      18.1051       1.7268      97.6361
77            1            1      18.3228      1.17373      99.0245
78             1             1       17.4449       1.75261       100.163
79             1             1       17.7335       1.18534       101.584
80             1             1       16.7332       1.65737       102.603
81             1             1       17.0172      0.985184       103.911
82             1             1       16.2219       1.60281       104.993
83             1             1       16.2221      0.803052       106.294
84             1             1       15.6069       1.62413       107.394
85             1             1       15.6971       1.07662       108.829
86             1             1       15.0628       1.81298       110.025
87             1             1       15.1666       1.11382       111.443
88             1             1       14.3341        1.6405       112.631
89             1             1       14.5414      0.749907       113.957
90             1             1       13.8582       1.44603       115.153
91             1             1       14.0028       0.59755       116.378
92             1             1       13.3525       1.37447       117.583
93             1             1       13.6275      0.570068        118.84
94             1             1        12.892       1.16663       120.032
95             1             1       13.1586      0.342865       121.311
96             1             1       12.8314        1.1131       122.613
97             1             1        13.143      0.430898       123.907
98             1             1       13.1154       1.27599        125.21
99             1             1        13.689      0.362256       126.335
100             1             1       13.8647       1.10022       127.618
101             1             1        14.538      0.183646       128.653
102             1             1       14.8275      0.982125       129.903
103             1             1       15.1326      0.113517       131.154
104             1             1       15.5687      0.970056       132.369
105             1             1        15.949      0.218233       133.639
106             1             1       15.9766       1.05907       134.868
107             1             1       16.5016      0.187108       136.041
108             1             1       16.6034      0.915214       137.385
109             1             1       17.3527      0.101729        138.51
110             1             1       17.2445      0.930387        139.84
111             1             1         17.75      0.123709       141.045
112             1             1       17.7596      0.912294       142.351
113             1             1       18.1688     0.0111838       143.508
114             1             1       18.2312      0.801882       144.784
115             1             1        19.336       0.22512       145.637
116             1             1       19.3002      0.870968       147.081
117             1             1       20.3721      0.465285       148.092
118             1             1       20.0744      0.833987       149.559
119             1             1       21.1398      0.466409       150.619
120             1             1       20.9168      0.757737       152.087
121             1             1       22.0343      0.410199       153.076
122             1             1       21.6861      0.677974       154.514
123             1             1       22.8684      0.608775       155.524
124             1             1         22.38      0.730517       156.937
125             1             1       23.5744      0.705072       157.907
126             1             1       23.0927      0.959183       159.331
127             1             1       24.1628      0.825767       160.372
128             1             1       23.6373      0.850101       161.816
129             1             1       24.6878      0.537781       162.902
130             1             1       24.4111       1.00959        164.29
131             1             1       25.5235      0.650751       165.264
132             1             1       25.1356      0.704648       166.694
133             1             1       26.3743      0.455145       167.547
134             1             1       25.9341      0.315984       169.032
135             1             1       26.9736     0.0484957       170.062
136             1             1       26.5865     0.0178976        171.54
137             1             1       27.7651      0.390478       172.529
138             1             1       27.4826      0.347869        173.97
139             1             1       28.7897       0.55298       174.791
140             1             1       28.5289      0.580739       176.311
141             1             1        29.737      0.582272       177.241
142             1             1       29.3415      0.675713       178.681
143             1             1       30.3935      0.188041        179.68
144             1             1       29.8975       0.58699       181.083
145             1             1     -0.132943      0.381122       182.116
146             1             1       30.8296      0.906313       183.531
147             1             1      0.550976      0.259811       184.608
148             1             1      0.246607      0.779904       186.038
149             1             1       1.32049      0.443755       187.084
150             1             1       1.02618      0.779659       188.537
151             1             1       2.21066      0.754628       189.477
152             1             1       1.85916       1.08759       190.898
153             1             1       2.88337      0.657653       191.934
154             1             1       2.47651      0.848524       193.401
155             1             1       3.60387      0.665427       194.336
156             1             1       3.39962      0.917594       195.787
157             1             1       4.57339      0.839103       196.763
158             1             1       4.15648      0.998379       198.231
159             1             1       5.31122      0.814401       199.203
160             1             1       4.86496      0.626956       200.628
161             1             1       5.95995      0.462598       201.631
162             1             1       5.62498      0.464925       203.129
163             1             1        6.8547      0.282249       204.045
164             1             1         6.549      0.354786       205.542
165             1             1       7.72467      0.563057       206.419
166             1             1       7.42643      0.957453       207.906
167             1             1       8.45278      0.428778        208.89
168             1             1       8.04919      0.651494       210.308
169             1             1       9.24214      0.503105       211.337
170             1             1       8.77703      0.722235        212.81
171             1             1       9.82906      0.473347       213.868
172             1             1       9.40858      0.598571       215.287
173             1             1       10.4691      0.284673       216.333
174             1             1       10.2318      0.954003       217.689
175             1             1       11.0918      0.324997       218.815
176             1             1        11.205       1.13748       220.109
177             1             1       12.0981      0.440714       221.166
178             1             1       11.9148       0.96473       222.624
179             1             1       13.2044      0.791525       223.469
180             1             1       12.8377      0.978425       224.949
181             1             1        13.887      0.454811       225.867
182             1             1       13.8305        1.1288       227.283
183             1             1       14.8385      0.544229       228.289
184             1             1       14.7047        1.2793       229.588
185             1             1       15.5193      0.570777       230.684
186             1             1       15.4769       1.38531        231.97
187             1             1       16.3389      0.759704       233.067
188             1             1       16.5511       1.50336       234.364
189             1             1       16.8571      0.603364       235.562
190             1             1       17.2518       1.39163        236.78
191             1             1       17.6574      0.426553       237.907
192             1             1       18.2366       1.16646        239.13
193             1             1       18.5509      0.365512       240.377
194             1             1       18.8842       1.24327        241.61
195             1             1       19.1363      0.421811        242.85
196             1             1       19.8226       1.13364       243.998
197             1             1       20.0697      0.255241       245.225
198             1             1       20.4634       1.09209       246.441
199             1             1       20.7847      0.215884       247.668
200             1             1       21.1804        1.0754       248.859
201             1             1       21.5623      0.281483       250.156
202             1             1        21.724       1.28461       251.356
203             1             1       22.4382      0.742559       252.607
204             1             1       21.8109       1.27699       253.864
205             1             1       22.5276      0.861969       255.132
206             1             1       21.7948       1.34252       256.425
207             1             1       22.4919       1.01191       257.758
208             1             1       21.7681       1.56818       258.942
209             1             1       22.2599      0.912841       260.246
210             1             1       21.1545       1.07639       261.261
211             1             1       21.6418      0.803234       262.671
212             1             1       20.6396       1.09767       263.784
213             1             1       21.1801      0.913205       265.226
214             1             1       20.1867       1.01412       266.359
215             1             1       20.7934      0.802418       267.771
216             1             1       19.6759      0.912215       268.798
217             1             1       20.1307      0.670846       270.175
218             1             1        19.239       1.28463       271.191
219             1             1       19.3284      0.733242       272.616
220             1             1       18.4174       1.36917       273.653
221             1             1       18.5495      0.812113       275.041
222             1             1       17.9875       1.73478       276.083
223             1             1       17.9529      0.893265       277.349
224             1             1       17.1621       1.49085        5.4766
225             2             1       20.9089       3.68767       277.535
226             2             1       21.2122       3.25634       5.98699
227             2             1       20.2792       3.79899       7.03672
228             2             1        20.293       2.94656        8.2879
229             2             1       19.2092       3.30491        9.3338
230             2             1       19.4786       2.66669       10.6762
231             2             1       18.5846       3.30062       11.7701
232             2             1       18.8156       2.89136       13.2017
233             2             1       17.8305        3.5682       14.1427
234             2             1       17.8721       2.88178       15.5519
235             2             1       16.9294       3.57048       16.5721
236             2             1       17.0153       2.90327       17.9135
237             2             1       16.1348       3.57044       18.9703
238             2             1        16.224       2.83395         20.27
239             2             1       15.1785        3.3579       21.2538
240             2             1       15.1494       2.71152       22.6387
241             2             1       14.3096       3.32885       23.6862
242             2             1       14.6684       2.92665       25.1106
243             2             1       13.6617       3.41827       26.1515
244             2             1       13.9756       2.89509       27.5659
245             2             1       13.0315       3.54472       28.6229
246             2             1       13.0897       2.93284       30.0394
247             2             1       12.2248        3.6687       31.0168
248             2             1       11.9506       2.82992        32.271
249             2             1       11.4148       3.56455       33.4656
250             2             1       11.3034       2.83168        34.845
251             2             1       10.2431       3.45411       35.8582
252             2             1        10.076       2.68765       37.1443
253             2             1       9.54661       3.51772       38.2324
254             2             1       8.96755       2.69137       39.3854
255             2             1       8.43727       3.53676       40.5103
256             2             1       8.42078       2.85793       41.9203
257             2             1       7.89267        3.6214       43.1217
258             2             1       7.52545        2.8659       44.3696
259             2             1       7.09459       3.90374       45.3462
260             2             1       6.80076       3.37423       46.7166
261             2             1       6.18761       4.33224       47.7253
262             2             1       6.25136        3.6924       49.0915
263             2             1       5.50153        4.3492       50.2618
264             2             1       5.36794       3.48716       51.4894
265             2             1       4.71741       4.17498       52.6928
266             2             1        4.7339       3.55604       54.1471
267             2             1       4.10491       4.35999       55.2364
268             2             1       4.22722       3.72673       56.6258
269             2             1        3.2402       4.49265       57.5075
270             2             1       3.18797        3.9421        58.906
271             2             1       2.45262       4.72254       59.9285
272             2             1       2.58182       3.97774       61.2118
273             2             1       1.71451       4.52401       62.3346
274             2             1       1.82948       3.90029       63.7437
275             2             1      0.760279       4.51034       64.6278
276             2             1      0.995761       4.14408        66.054
277             2             1     0.0229673       4.76944       67.0258
278             2             1      0.334999       4.21798       68.4053
279             2             1       30.4198       4.56124       69.4961
280             2             1       30.9093        4.2706       70.9059
281             2             1       29.8432       4.41629       72.0102
282             2             1       30.1224       3.73815       73.3619
283             2             1       29.0853       4.19238       74.4592
284             2             1       29.4955        3.7641       75.8818
285             2             1       28.3709       3.97293       76.9267
286             2             1       28.8086        3.7224       78.3423
287             2             1       27.6422       3.99908       79.3481
288             2             1       27.7817        3.3282       80.6594
289             2             1       26.6944       3.84181       81.6484
290             2             1       26.8515       3.27979       83.0364
291             2             1       25.9844       3.99411       84.0778
292             2             1       25.8746       3.28911       85.4469
293             2             1       25.0568       4.05357       86.4765
294             2             1       25.4851       3.55032       87.8383
295             2             1       24.5298       4.00437       88.9093
296             2             1       24.8903       3.32474       90.2274
297             2             1        24.171       4.01057       91.3936
298             2             1       24.2863       3.30754       92.7166
299             2             1       23.3834       4.03956       93.7492
300             2             1       22.9984       3.15612       94.8832
301             2             1       22.5394       3.94312       96.0833
302             2             1       22.1878       3.04385       97.2202
303             2             1       21.8092       3.88328       98.4264
304             2             1       21.6425       3.00625       99.6293
305             2             1       21.1148       3.76139       100.796
306             2             1       21.2082       3.07784       102.192
307             2             1       20.9397       3.94172       103.408
308             2             1       20.6975        3.0965       104.647
309             2             1       20.1434       3.82696       105.871
310             2             1       19.8139       2.97163       107.069
311             2             1       19.0563       3.60443         108.2
312             2             1        19.003        2.9583       109.574
313             2             1       18.6006       3.87694       110.801
314             2             1       18.2793       3.09806       112.034
315             2             1         17.79       3.91312       113.315
316             2             1       17.8163        2.8861       114.454
317             2             1       17.1314       3.32777       115.701
318             2             1       17.5936       2.61026       116.984
319             2             1       16.8806       3.11486       118.257
320             2             1       17.2933       2.39324       119.561
321             2             1       16.6898       3.10995         120.8
322             2             1        17.534       2.84247        122.13
323             2             1       17.0198       3.23849       123.515
324             2             1       18.0541        3.1033       124.583
325             2             1       17.5097       3.26875       125.997
326             2             1        18.466         2.886       127.141
327             2             1       17.9498       3.15778         128.6
328             2             1       18.9006       2.85196       129.739
329             2             1       18.5809       3.22869       131.212
330             2             1       19.4511       2.55575       132.307
331             2             1       19.2565        3.2396       133.693
332             2             1       19.9044       2.36015       134.782
333             2             1       19.7257       2.93443       136.206
334             2             1       20.5779       2.41085       137.332
335             2             1       20.2242       2.88585       138.741
336             2             1       21.3285       2.63387       139.758
337             2             1       21.0766       3.03672        141.21
338             2             1       22.1443       2.42186        142.19
339             2             1       21.8864       2.97281         143.6
340             2             1       22.9025       2.63719       144.661
341             2             1       22.5913       3.22354       146.065
342             2             1       23.5581       2.75249       147.132
343             2             1       23.5007       3.29611       148.557
344             2             1        24.672       2.74689       149.394
345             2             1       24.4803       3.34988        150.79
346             2             1       25.5038       2.88868       151.808
347             2             1        25.319       3.39647       153.248
348             2             1       26.2065       2.65194       154.275
349             2             1       25.7021       2.93993       155.728
350             2             1       26.8456       2.63561       156.685
351             2             1       26.7122       3.18491       158.113
352             2             1       27.5868       2.62777       159.233
353             2             1       27.2684       3.33879       160.549
354             2             1       28.1528       2.77096        161.62
355             2             1       27.8971       3.29868       162.981
356             2             1       28.7419       2.63507       164.021
357             2             1       28.3153       3.14078       165.393
358             2             1        29.484        3.2341       166.373
359             2             1       29.1744       3.25417       167.903
360             2             1       30.3563       2.75051       168.758
361             2             1       30.0965        2.8564       170.242
362             2             1      0.174224       2.46388       171.121
363             2             1    -0.0870265       2.82678       172.585
364             2             1      0.983242       2.44021        173.63
365             2             1      0.579049        2.8379       175.103
366             2             1       1.65935       2.48372       176.143
367             2             1       1.29964       2.93392       177.533
368             2             1       2.34007       2.57899       178.529
369             2             1       1.92999       2.92278       179.999
370             2             1       2.96149       2.59689       181.107
371             2             1       2.55484       3.03197       182.519
372             2             1       3.68878       2.69708        183.49
373             2             1       3.40906       3.35257       184.853
374             2             1       4.32888       2.72305       185.886
375             2             1       4.04897       3.20835       187.302
376             2             1       5.10779       2.81783       188.195
377             2             1       4.97216       3.28952       189.633
378             2             1       6.11094       2.76274        190.51
379             2             1       5.98095       3.34309       191.901
380             2             1       6.74845       2.55735       192.952
381             2             1       6.65369       3.11697       194.358
382             2             1       7.63472       2.47206       195.375
383             2             1       7.60418       3.11376       196.785
384             2             1       8.48969       2.41436        197.85
385             2             1       8.54557       3.13146       199.205
386             2             1       9.38191       2.43215       200.296
387             2             1       9.17547       3.22551       201.615
388             2             1       10.1719       2.75215       202.727
389             2             1       9.74149       3.19627       204.155
390             2             1       10.6062       2.62878       205.279
391             2             1       10.4808       3.36607       206.588
392             2             1       11.3279       2.64874       207.713
393             2             1       11.4294       3.37873       209.065
394             2             1       12.3141       2.68804       210.088
395             2             1       12.1732       3.49574       211.413
396             2             1       13.1487       3.02821        212.46
397             2             1       12.9414       3.58275       213.856
398             2             1       14.1521       3.27596       214.766
399             2             1       13.8641       3.60196       216.204
400             2             1        15.006       3.29362       217.234
401             2             1       14.5091       3.55546       218.624
402             2             1       15.5669       3.07667       219.641