LAMMPS data file via write_data, version 23 Jun 2022, timestep = 11112117

8487 atoms
2 atom types
8471 bonds
3 bond types
8455 angles
3 angle types
8439 dihedrals
3 dihedral types

0 36.89775039 xlo xhi
0 26.67072 ylo yhi
45.49560791117612 191.25599648884634 zlo zhi
0 4.585939201867559 0 xy xz yz

Masses

1 14
2 15

Pair Coeffs # lj/cut/omp

1 0.0914 3.95
2 0.1947 3.75

Bond Coeffs # harmonic/omp

1 449.5 1.53
2 449.5 1.53
3 449.5 1.53

Angle Coeffs # harmonic/omp

1 62.0967 114
2 62.0967 114
3 62.0967 114

Dihedral Coeffs # opls/omp

1 1.411 -0.271 3.145 0
2 1.411 -0.271 3.145 0
3 1.411 -0.271 3.145 0

Atoms # molecular

8038 11 1 1.5187843378119834 21.218956451466116 49.26084414046937 1 0 1
1471 15 1 8.28817998118478 16.43214337768164 47.49762236196763 1 0 1
1587 38 1 8.459890607229365 18.773173759613687 50.87521330702792 1 0 1
6218 23 1 10.020034601672299 26.053987503679945 47.523706980536396 -1 0 0
7048 56 1 2.3735573821321605 7.82439000335344 51.626798219844126 1 0 1
6742 52 1 2.1918535293250567 0.41829582461919196 55.27568334472971 1 0 1
405 16 1 10.274977339709562 21.739927495630415 47.866063651857885 1 -1 1
1472 15 1 9.746230440578941 16.577571501578664 47.44160002369694 1 0 1
564 30 1 12.51034877363012 6.858321931230326 53.0056621305233 0 0 0
7817 11 1 4.058574437772952 20.907468727112498 52.2856912297306 1 0 1
1593 38 1 11.429577916469942 19.111247496687643 57.27769192139432 1 0 1
3663 35 1 16.046629783366217 18.22939197741819 51.57279885656996 0 0 0
599 51 1 3.781823741910194 9.902662885422938 47.849859837115325 0 0 0
518 5 1 5.242030926870032 6.18869711499392 47.189051401390465 0 0 0
2748 29 1 17.407071353642845 9.750259201448786 51.43881139792076 0 0 0
1025 33 1 7.97998915736026 13.44861629961677 45.714905145658896 1 0 1
2043 37 1 15.36558193858719 24.393476332614263 49.48310299010757 -1 0 0
1590 38 1 8.688539157589066 18.39289890538402 54.750672658662 1 0 1
1058 14 1 6.543026616142993 14.79513437173695 50.06767442479825 0 0 0
231 20 1 15.354896596512228 3.576024440226619 54.62314685744194 1 0 1
2744 29 1 14.560486549898483 9.410902394879713 48.86698036694385 0 0 0
1609 16 1 16.814921855465315 22.243079748979223 57.87684303970377 1 0 1
6807 57 1 1.7331103494212095 4.167982925024741 50.74356827226715 0 0 0
1689 18 1 2.5080410181656108 23.212537861609903 46.48621467407865 0 0 0
6805 57 1 0.8342425696490864 3.6736117042466745 48.32022606162546 0 0 0
6827 55 1 2.886122669082811 4.7306463083852295 58.30573484171711 1 0 0
1330 37 1 17.790194683254185 24.377946690775282 52.848590328379274 -1 0 0
7711 61 1 3.983480553359195 15.90806323445811 52.728906714968694 0 0 0
7870 37 1 13.355475842340853 23.38459902230315 48.22704333035315 0 0 0
1483 15 1 16.250206586033894 18.097129546716715 56.892187124453166 0 0 1
2743 29 1 13.94450394661178 9.321112234962987 47.51331808319271 0 0 0
2650 26 1 18.048336222155115 6.064361600061169 51.89796770478931 0 0 1
6709 37 1 17.15952252803569 23.07492497631018 52.68081215634876 -1 0 0
1037 33 1 14.673629313866606 11.720580851707737 55.81707399300181 0 0 1
1964 61 1 6.479947238631094 17.062476224603802 57.02677654612665 0 0 0
1612 16 1 17.81156341877062 22.90406745136752 59.65412408484062 1 0 1
3659 35 1 14.120979279132916 17.74089168162329 48.4800710807878 0 0 0
1610 16 1 17.152870060916147 20.948491044462617 58.61014728468197 1 0 1
6579 16 1 8.265376588739871 20.407633843905625 47.324868316580094 1 -1 1
6900 23 1 14.324748751735633 25.03798605014298 55.38436005941329 -1 0 0
1698 18 1 8.957475526443242 23.22537483855456 54.00559234143174 0 0 0
6825 34 1 2.046664717876697 6.213620216703509 56.52134904459687 1 0 1
304 5 1 10.669687401846197 5.719499441429994 56.63141825272211 0 0 0
1477 15 1 12.049296803089646 17.427930623501982 52.12158210462868 1 0 1
302 5 1 9.198653050230002 4.540197301350726 55.14838491470823 0 0 0
1038 33 1 14.347578434373219 13.113317035239053 56.10375387645483 0 0 1
1055 14 1 4.901450789942339 14.853898826372985 48.215623565591116 0 0 0
1039 33 1 15.167931493975535 13.659470737005204 57.20955516814962 0 0 1
4302 35 1 17.712105404935315 20.044777100730954 54.34333868745718 0 0 0
770 21 1 18.694629256107753 1.090132010616159 55.57236845620294 -1 0 0
1704 18 1 12.240758298676342 23.649141499061393 59.18063446450014 0 0 0
3409 55 1 17.223170289136476 16.579853729975955 48.15166667304609 0 0 0
1028 33 1 9.512208865110082 10.954539546529395 48.007646976786084 1 0 1
594 30 1 9.47600057550721 7.23481346724188 46.2986852172804 0 0 0
595 30 1 10.060477942209735 7.021788487128026 47.579497759651176 0 0 0
7748 59 1 2.8596792408385268 18.88442944299179 55.22940478626826 0 0 0
3216 3 1 15.311931690590454 14.00086352300296 50.349541911391405 0 0 0
572 30 1 17.041046476541286 8.08967950057439 59.874364103949716 0 0 0
1556 35 1 16.558822918096244 19.739590616209412 53.327245916493155 0 0 0
6828 55 1 3.8954346083460485 5.661670554977257 57.85299150756323 1 0 0
6420 23 1 16.143874530835866 26.01232696655343 58.5872157194734 -1 0 0
2687 27 1 17.026326652576728 6.292073015009388 46.07363846976787 0 0 0
3731 16 1 7.146688658200258 20.55472466563945 46.36932490155291 1 0 1
3697 37 1 16.254139392569254 23.05580787625974 51.47422787343924 -1 0 0
1582 38 1 3.683992884303942 18.3049949349597 47.153263196952004 1 0 1
2552 24 1 17.626032123137687 3.442593393784832 47.50300902640232 0 0 1
4 2 1 2.3740725277261947 1.5402342342139947 46.30263856938661 0 0 0
6 2 1 4.2657631927579445 2.196314758935353 47.5130799723351 0 0 0
7495 29 1 2.6591863697135434 12.724646123185469 51.18921253029657 1 0 1
2643 26 1 13.86422368727828 4.621901981562694 45.945574806668596 0 0 1
7709 61 1 3.1317377378193276 17.340039959170074 51.006273558096055 0 0 0
611 51 1 10.931292174374603 9.699357509381038 56.760570916290156 0 0 0
7296 54 1 1.2249819363990673 11.218838983890315 54.119438264907394 0 0 0
601 51 1 6.319528791579208 9.361209444885215 48.13061963828077 0 0 0
5908 20 1 11.04382133228253 4.056007346719421 49.96557034766562 1 0 1
2025 21 1 14.060902914360415 0.7152989713101726 48.40215670696444 0 0 0
3863 10 1 16.671140038904632 19.808458468233187 46.94815394051329 0 0 0
7752 59 1 4.481000900130698 17.813549636861215 60.03522240071701 0 0 0
7573 19 1 0.34062604091979887 14.506109301187674 52.700511208597845 1 0 0
1474 15 1 9.711570799082429 16.258288511494165 49.64358336269713 1 0 1
2753 29 1 18.73532600200404 11.0801136531377 56.55365389582948 0 0 0
2740 29 1 12.628995706323412 10.300092518960659 45.700327562037046 0 0 0
4858 61 1 7.093034682905902 15.923170696517413 56.30715487691574 0 0 0
1034 33 1 12.661463564694156 12.775103863238288 52.87004127732911 0 0 1
4195 17 1 18.03749910528535 25.996513521151424 48.20277219852514 0 0 0
598 51 1 2.8033070028537934 10.381325049320179 46.808310968803504 0 0 0
1594 38 1 11.548979307134603 19.58676647161825 58.68265992231886 1 0 1
6812 57 1 4.846132279976627 3.6064077302944657 54.54074165330735 0 0 0
2089 20 1 8.954378360527565 3.7834221134694794 46.22744294999835 1 1 1
7498 29 1 4.195101226977124 12.832231783530391 53.81457609046853 1 0 1
3081 3 1 17.73828487370227 14.592152056904444 52.86626141342398 0 0 0
8326 3 1 16.71210560119621 15.062214254255709 53.80137638527721 0 0 0
1026 33 1 8.435457462423607 12.07734390054005 45.85572493219824 1 0 1
7046 56 1 0.6322747589207606 8.703326281614004 49.59626228990695 1 0 1
1608 16 1 15.883957033654152 22.221174305200464 56.59083919883265 1 0 1
7979 3 1 18.728693401772055 14.654614063248951 55.20921490183836 0 0 0
1029 33 1 10.719710165527292 11.267188229991786 48.93630146416161 1 0 1
6740 52 1 0.6312477340274116 1.724860374200474 54.19150873540659 1 0 1
235 20 1 16.376248243700157 3.7397876536564083 59.24183121629395 1 0 1
1040 27 1 16.15345245172683 12.579718875371896 57.56161288912015 0 0 0
4194 17 1 18.17522325741739 25.994111247813212 46.73743131630649 0 0 0
1470 15 1 7.592397803025449 17.071849336112738 46.26441389892566 1 0 1
6743 52 1 2.8190862140279127 26.63218715348447 56.591562853749885 1 -1 1
2742 29 1 14.069459927241146 8.386035884111179 46.38303337001135 0 0 0
6741 52 1 1.6340658129017813 1.815152203337005 55.260781710491784 1 0 1
1692 18 1 5.862996511813587 23.658025205398374 48.24422618622331 0 0 0
7049 56 1 3.65403319701506 7.725157042128056 50.730217635347316 1 0 1
7298 54 1 1.8809353331866467 9.403029051750124 55.87170783566837 0 0 0
8009 23 1 12.671941511193316 25.389489066737934 53.24097051429362 -1 0 0
2745 29 1 14.445303039397697 10.688770063133576 49.69239493966851 0 0 0
562 30 1 10.750633441647098 7.946321806307206 51.61556815438546 0 0 0
522 5 1 7.6357206067398735 6.001376390486704 50.41584878091034 0 0 0
14 2 1 9.039654965315703 0.8303525670527329 55.167802675849636 0 0 0
7938 16 1 13.851497073774208 21.610137584542915 55.37416434356375 1 0 1
7576 19 1 2.37972170940265 15.648894965300746 55.506279798454614 1 0 0
1056 14 1 5.4292782699318005 13.555780004894022 47.997633186478744 0 0 0
3407 55 1 16.574588999312013 16.032597125199263 46.23122567318483 0 0 0
4192 17 1 16.397638342924953 24.63176299913208 45.75414207311498 0 0 0
8278 64 1 8.117974266842804 24.30256085655044 58.71926878313058 0 0 0
8275 64 1 6.575842045099506 25.37512847566736 55.518856635192705 0 0 0
1696 18 1 8.374848099178804 23.936966300335744 51.92749183776309 0 0 0
3212 3 1 13.03703794978562 13.869327812722167 45.94337202242647 0 0 0
515 8 1 1.9418382761676414 7.512174452255318 46.095387907526394 0 0 1
8267 63 1 1.0202656601579416 25.79816773967657 48.549077869766585 1 0 1
609 51 1 10.58569869434635 9.551105129851669 54.53535885738266 0 0 0
7819 11 1 5.908068253565363 20.083925096446514 53.705116560357375 1 0 1
5025 21 1 14.750140253092859 1.7675692132216687 49.32434698881109 0 0 0
1585 38 1 6.291276902107979 19.000197922015246 49.627352979809395 1 0 1
7 2 1 5.568933074893174 1.5650832430460975 47.47873026667 0 0 0
8237 60 1 2.4242009282067807 22.747780691029273 54.75601723816992 1 0 1
1064 14 1 10.84340653211123 13.340459974244327 56.04952100478826 0 0 0
6522 52 1 3.842599418554789 26.34518912752378 59.077932502185654 1 -1 1
1581 38 1 2.5933217856086284 19.06207013245538 46.49351649912274 1 0 1
8173 23 1 9.156033942376945 24.79423177320611 47.86609138006337 -1 -1 0
7750 59 1 3.150732822868771 18.2323125237241 57.77651029974652 0 0 0
8274 64 1 5.159704763125234 25.026775952464877 55.18195057868092 1 0 0
8154 37 1 18.500858990080957 23.35354630432624 54.84200637709169 -1 0 0
5900 23 1 8.602849138541318 26.356712867692938 45.94043067367614 -1 -1 0
12 2 1 8.23273834221564 1.3071125286940106 52.87435720478692 0 0 0
516 5 1 2.8429237790115462 6.482784528389278 46.81414562329295 0 0 0
1688 18 1 2.98137458476818 24.44302716472741 45.75949872889081 0 0 0
2163 23 1 16.25042208364646 25.734886452712857 57.19513323703179 -1 0 0
3662 35 1 16.079195151976844 19.526967802645558 50.80906313041747 0 0 0
7050 56 1 4.606177605911334 7.5151722548794835 51.93651556289974 1 0 1
629 23 1 11.060677849664145 25.548587488944897 49.894141058377926 -1 0 0
5580 41 1 0.4494154571382822 16.218291263104526 58.82636316410609 0 0 0
2256 37 1 14.610405518345802 22.838562701900152 47.72310326341084 -1 0 0
1485 15 1 17.92916968909883 17.20072949205101 58.330445851831264 0 0 1
4505 21 1 17.586783086898585 0.788187812857933 54.632573821965494 -1 0 0
5390 61 1 7.706012980198579 15.96176489484366 58.75923397976567 0 0 0
569 30 1 15.377490969418417 8.519007537857942 56.46849122200822 0 0 0
1475 15 1 10.409782403803813 16.14709908309957 50.97160652187873 1 0 1
7493 29 1 0.8845890724727858 12.790999047759419 49.578354430941744 1 0 1
8273 64 1 4.842114587569169 24.94381203226252 53.68938109353663 1 0 0
1067 14 1 11.718904323527097 15.095695549918332 58.4231483669148 0 0 0
1036 33 1 13.732385564538847 11.45645973176958 54.72684170452967 0 0 1
1066 14 1 11.639517809436516 15.414417686019142 56.9882363706988 0 0 0
2856 16 1 12.282923091431217 22.292145618441054 51.4012192528395 1 0 1
2746 29 1 15.146821702008246 10.283344859433733 50.95237051644684 0 0 0
232 20 1 15.700842452453287 3.912740998325468 55.98945184747974 1 0 1
7055 49 1 5.941070002549674 8.05593616893289 56.357244868085445 1 0 0
2279 3 1 15.75482392604828 13.975747585841223 51.783532763738506 0 0 0
7216 37 1 16.300566273574887 24.327318928383363 50.726528461989275 -1 0 0
3245 16 1 12.904977829339833 21.063137200452772 52.09373815170951 1 0 1
8 2 1 5.527383220647069 0.40647675295991914 48.53874352741309 0 0 0
7221 16 1 10.070431582298461 20.73990498458593 48.95011752558358 1 -1 1
1702 18 1 11.475649101641588 24.026632532427886 56.79804669693225 0 0 0
7575 19 1 1.0975500988401024 15.709183440202029 54.90359546956166 1 0 0
520 5 1 5.9433671339067935 4.816193926383125 49.23203867130147 0 0 0
8271 64 1 4.277667551202655 26.15182274094868 51.61315080730046 1 0 0
6813 57 1 5.020488144180833 2.3347518503148255 55.29694109357331 0 0 0
1695 18 1 7.263395329576968 23.90681885698145 50.946737260482536 0 0 0
6811 57 1 4.0353253278132515 3.5161063537352466 53.28988407505049 0 0 0
306 5 1 12.393144777578133 5.0749915640831675 58.14978567580907 0 0 0
1027 33 1 9.382874426726131 12.113979356708173 46.912048102666674 1 0 1
1699 18 1 9.207582611804938 21.937388638743492 54.758555417663565 0 0 0
2642 26 1 12.34432801981002 4.697873274832671 45.94166005525379 0 0 1
300 5 1 8.827984908049123 5.215286471468178 52.64975777290479 0 0 0
7058 49 1 8.756773749168717 8.431904486499006 58.97497644480656 0 0 0
307 5 1 12.060426126328757 6.604841125880361 58.245404921079924 0 0 0
8268 63 1 1.7448063940792915 25.721630574974167 49.97899662098611 1 0 1
7054 49 1 6.234634243814732 6.697383889717168 55.90904749961699 1 0 0
18 2 1 12.160629948656572 0.21371364248767408 57.9143926608993 0 0 0
7047 56 1 1.0826297812051227 7.598453920991527 50.727629915208524 1 0 1
7823 59 1 6.9420740515540915 20.208918885480347 58.66632227728538 1 0 0
7301 54 1 3.9634759164620585 10.5849458269983 58.75858762849539 0 0 0
3343 20 1 10.617802923167885 4.141851830934819 48.49406825145314 1 0 1
1591 38 1 9.848840705559072 18.098113867006983 55.62812683856528 1 0 1
3664 35 1 16.875455470104107 18.358384154379422 52.74789848872283 0 0 0
1478 15 1 12.237969664343884 16.052496246089774 52.70915121832875 0 0 1
6829 55 1 4.845020610136659 5.373254177962761 58.898467563051376 1 0 0
7053 49 1 5.806225891189277 6.721777670343123 54.48189922574511 1 0 0
8239 60 1 2.716723772363136 23.31322882100326 57.30233927599749 1 0 1
2611 25 1 17.907751204318764 5.4444608111316475 53.205407652401846 0 0 0
3658 35 1 13.897123487462277 19.203728216226878 48.095255774754285 0 0 0
8039 11 1 1.9939011611374933 21.23593558245012 50.66048366082141 1 0 1
7499 29 1 4.78642334952595 11.406249165957243 53.870265264220954 1 0 1
2645 26 1 13.777407469386473 5.7814364834963925 48.279556522975746 0 0 1
1057 14 1 6.699413825210805 13.824162018671903 48.86721323460667 0 0 0
7749 59 1 3.2947082131697285 19.25290957372309 56.68919510371399 0 0 0
7297 54 1 1.3226870403394957 10.641208910012505 55.450933729392624 0 0 0
1691 18 1 4.898378259789678 23.451910439783806 47.06249952238996 0 0 0
593 30 1 8.984590515735283 8.47280840931593 45.847777968904744 0 0 0
7778 23 1 8.343460698199593 24.91956326114217 46.57861518628016 -1 -1 0
6744 52 1 2.2047748691195173 0.719771068222262 57.67107289779562 1 0 1
1484 15 1 16.51350211734883 17.692261971600015 58.3174165212931 0 0 1
3214 3 1 13.472009992437714 14.436190272776606 48.23882213003681 0 0 0
8238 60 1 1.9147937584284236 22.578906596881772 56.26092738604469 1 0 1
2087 20 1 9.674853387322335 2.9589654220458486 48.5391351395949 1 1 1
7816 11 1 3.5108903274663743 20.88388010067423 50.779314687654576 1 0 1
2551 24 1 16.999951417306136 2.7936251938759162 46.31380711453597 1 0 1
1061 14 1 8.264238569592873 13.67715763608902 53.42354784248644 0 0 0
1611 16 1 18.148811591991365 21.494822061814038 59.62772868899488 1 0 1
4112 37 1 12.850463174531484 23.7875582613491 46.90106062201176 0 0 0
7158 3 1 17.10111880489111 14.486398109913926 51.54898243818139 0 0 0
7497 29 1 4.545040136287605 12.851391767557597 52.38984819661125 1 0 1
301 5 1 8.252130360338448 4.541334221877091 53.94968756991824 0 0 0
517 5 1 4.130223470717551 6.093615137440882 46.26144710037252 0 0 0
935 16 1 11.064166579939968 22.103887841432915 50.621807057107546 1 0 1
3705 21 1 16.38082441492522 1.4457310775298666 52.77087801878217 -1 0 0
3182 32 1 16.62264210906082 11.271647410097383 46.6346479998248 0 0 0
2161 21 1 13.590759686761817 0.36237650207737376 46.13573225027209 0 0 0
7708 61 1 1.8425528429661882 17.436642335093378 50.24760521354116 0 0 0
13 2 1 9.213171408494672 0.5797598265361711 53.66146783890799 0 0 0
570 30 1 15.879957302721213 8.842962131577059 57.85221270347437 0 0 0
8236 60 1 1.1017899687578931 22.94944926891719 54.10917311423183 1 0 1
7707 61 1 1.629527885251533 16.085253298147205 49.627344723407134 0 0 0
5400 23 1 14.952456050604253 25.46941679679341 56.65511377894226 -1 0 0
604 51 1 7.007672536776544 11.0389129741003 51.47370071809778 0 0 0
7578 19 1 3.2154090502229944 14.646318393530237 57.83669805451337 0 0 0
1701 18 1 11.168008653876182 23.354366019583605 55.500835158223865 0 0 0
1032 33 1 10.971705364739073 11.499607826922437 51.81126892071519 0 0 1
2162 21 1 13.749733906508215 1.47633286234463 47.013181302035555 0 0 0
8279 64 1 8.248523716010592 25.739443319306595 59.299219580800425 0 0 0
2088 20 1 8.569760698696724 3.150675973728815 47.59899489608889 1 1 1
602 51 1 6.183366206347763 10.39667512494365 49.23538290952654 0 0 0
6819 57 1 10.336883009698688 3.497517930244125 59.95516792454781 0 0 0
9 2 1 6.951363192444037 0.24768307541130075 49.148311911729344 0 0 0
227 20 1 11.84842326597617 3.603539285940991 52.16284877601937 1 0 1
8276 64 1 6.896935975780176 25.318734065934795 56.92251723470833 0 0 0
600 51 1 5.105556044516512 9.58136824885537 47.2284240892549 0 0 0
614 51 1 13.392667658279175 11.280438384094676 59.32815699722012 0 0 0
6745 52 1 2.48310982950326 0.2504232184934532 58.96777092419262 1 0 1
561 30 1 10.183641528002237 7.882250929510653 50.304285962992864 0 0 0
1703 18 1 11.294896991976366 23.235482738005267 57.926562058534 0 0 0
2750 29 1 17.334994244289696 11.338528660524489 53.28778484530766 0 0 0
2644 26 1 14.462383888327787 4.710930648989159 47.41958274707937 0 0 1
6815 57 1 6.925838117684154 2.691308094507867 56.7845186841466 0 0 0
521 5 1 7.208148033238473 5.6695036364412665 49.02810608600842 0 0 0
3213 3 1 12.908930665383478 13.33142540860325 47.283018539629694 0 0 0
305 5 1 11.857924362041274 4.75274543545821 56.75452548635639 0 0 0
1059 14 1 7.437287981091453 14.221056503033648 51.10373743027829 0 0 0
1476 15 1 11.486341277441364 17.28277101232159 50.84681558340965 1 0 1
612 51 1 11.65954927438539 10.809888376464794 57.6952039702419 0 0 0
6826 55 1 1.9100528397427194 4.8442941023727855 57.136123291412254 1 0 0
229 20 1 12.991651142866656 2.3299908581773137 53.762480497751966 1 0 1
2041 37 1 15.320605857257702 23.11070562781706 48.93239351667436 -1 0 0
1031 33 1 11.145832252669393 12.765427714070636 51.14240819912291 0 0 1
2647 26 1 14.67198272785399 5.145467808434284 50.52087838966861 0 0 1
2751 29 1 17.431881889494935 11.43096419399558 54.76461951607878 0 0 0
6816 57 1 7.125718046020891 2.942305141938051 58.16978445903232 0 0 0
7533 58 1 7.773284962709187 12.818735221513604 57.754812923918074 1 0 0
3657 35 1 12.756533521599398 19.26233666442618 47.13130109447639 0 0 0
1589 38 1 8.643853765869784 18.134311266831237 53.25811661720162 1 0 1
1030 33 1 10.38188665277973 12.56180954572468 49.7012229448572 0 0 1
6739 52 1 1.0232192977550902 0.6582640915830555 53.25242290855676 1 0 1
1053 14 1 4.136415289449678 15.151239522874073 45.911657700660335 0 0 0
7580 19 1 5.045873459384019 14.008306820378618 58.976500811153244 0 0 0
1607 16 1 14.808147540676412 21.202214607641142 56.541231944633424 1 0 1
519 5 1 4.82977278285731 5.39871815371205 48.322341590703594 0 0 0
11 2 1 7.937225884762343 0.4829007601091101 51.5322936439343 0 0 0
6205 61 1 7.488199859351162 17.354409570444048 58.20585523121184 0 0 0
303 5 1 9.798083453154337 5.840053463554032 55.3358870502285 0 0 0
228 20 1 12.681114865859819 3.7108333183374147 53.40299361188399 1 0 1
8270 63 1 3.442611858066584 24.848957216309543 51.53149584624253 1 0 1
567 30 1 14.010295055179398 6.706188787153677 55.719479489531686 0 0 0
7530 58 1 5.264654000542206 11.213594213120297 55.295191218960156 1 0 0
8144 21 1 15.142052788418049 1.1783325752012506 50.672236288473705 0 0 0
1586 38 1 7.139824913703575 18.223293121462596 50.68466527124404 1 0 1
3215 3 1 13.874170441876508 14.027531757248004 49.7353912037538 0 0 0
7824 59 1 7.658772339188842 20.800476014314892 59.912254057687875 1 0 0
1481 15 1 14.385873958497273 17.071015464350733 55.47631275292049 0 0 1
7713 61 1 5.536228693184147 16.915607270874474 54.48722963105043 0 0 0
1065 14 1 10.608427736127172 14.828514774394698 56.13855326759261 0 0 0
6806 57 1 2.030050809347044 3.4989990117832663 49.32068908025612 0 0 0
2646 26 1 14.661618214218892 6.065370282792925 49.33323365447724 0 0 1
230 20 1 14.101330823188485 2.7498103301496957 54.766461304217266 1 0 1
7577 19 1 2.5305990675545957 14.458958089324696 56.50661582633886 0 0 0
2652 27 1 18.23103366802931 8.06248828933574 47.72823357726387 0 0 0
6809 57 1 3.9198880908072935 3.1376931316091405 50.78239438351851 0 0 0
2749 29 1 17.144143302113637 9.923571202662272 52.86429050664938 0 0 0
225 20 1 11.077238585186146 2.4279931573367493 50.160638975656994 1 0 1
1041 27 1 16.726464060719568 12.541964180671355 58.98607490502863 0 0 0
1060 14 1 7.630716746468411 14.756724814438057 52.4828777389067 0 0 0
983 23 1 11.646352993388959 25.21191696359129 52.17971104658131 -1 0 0
608 51 1 9.221597396885473 9.302727311812923 54.9657948138469 0 0 0
2649 26 1 17.080822062737298 5.299716688454578 51.01813385874816 0 0 1
1860 3 1 17.54926578981732 15.633741405565711 54.96147152659351 0 0 0
563 30 1 12.105347633006115 7.30190417292007 51.49768633885155 0 0 0
4111 37 1 12.477118469212709 22.653049624203987 45.91071724670735 0 0 0
3408 55 1 16.547629858184195 15.296244440541065 47.57770113196413 0 0 0
1592 38 1 10.073364501497302 19.199708716719062 56.66514487165675 1 0 1
7714 61 1 6.044855435163589 15.662777224436365 55.22141335474396 0 0 0
1473 15 1 10.57804556917546 16.025798073832465 48.530774160457405 1 0 1
299 5 1 7.88101665080145 4.869513945379833 51.43902147177752 0 0 0
2799 21 1 18.654202963591636 2.502740804443696 55.717709675517945 -1 0 0
1694 18 1 7.092921203979817 22.71195323458153 50.00118410856176 0 0 0
1042 27 1 17.400957789143508 13.824493937891667 59.27308833449874 0 0 0
236 20 1 17.46149511712345 4.53370071823989 58.57551211444359 1 0 1
1479 15 1 13.420039064178214 16.204568647128017 53.544008803538716 0 0 1
8235 60 1 0.75098606242134 24.10787411018899 53.22009647074103 1 0 1
5273 44 1 0.8262416659708884 12.250114648096332 59.51314808989768 1 0 0
7300 54 1 3.274856699936608 10.667823381967624 57.418124038134785 0 0 0
5701 23 1 12.153607191887444 25.78751299564229 50.9434240085518 -1 0 0
7747 59 1 1.407990061979091 19.394409448646474 54.994453211376126 0 0 0
6824 34 1 0.9645391253150617 6.505336686735328 55.483233907796006 1 0 1
7751 59 1 3.758660892153894 18.719837163149712 59.06545486612836 0 0 0
7057 49 1 7.898116566663904 7.586918626872423 57.80279004567032 0 0 0
5 2 1 3.508348658133424 0.9612034739329501 47.00856564452977 0 0 0
1583 38 1 4.373018301634444 19.26071999961001 48.217751376385394 1 0 1
7534 58 1 8.334670687468257 12.391276374692572 59.14822592393499 0 0 0
1697 18 1 7.82151214781416 23.093014511391974 53.02198174959845 0 0 0
4557 21 1 17.760678541038374 1.384129534875818 53.29815985128716 -1 0 0
8277 64 1 6.9813510565751615 24.130184907957698 57.74290369254303 0 0 0
6810 57 1 4.749590410195493 2.9264474847067286 52.06868323281014 0 0 0
3660 35 1 14.903552821649585 17.840706061191025 49.67320967746305 0 0 0
1054 14 1 3.7261056588231125 14.986601515054447 47.27888678379075 0 0 0
10 2 1 7.162739520545389 1.165929503326099 50.38293003010453 0 0 0
8272 64 1 4.681946720546443 26.32210474962202 53.144652149797906 1 0 0
7818 11 1 5.585808551906696 20.82849220084041 52.41418675232278 1 0 1
571 30 1 16.150908314135428 7.6816358704398 58.73877127178801 0 0 0
1035 33 1 13.92771080739774 12.59186696357633 53.72550651745901 0 0 1
7820 11 1 5.907924080621644 20.83422511736149 54.99552995829115 1 0 1
7574 19 1 0.9629740290969283 14.466514988201686 54.103708898873975 1 0 0
3661 35 1 14.93140422569309 19.347943756509125 49.94402445548103 0 0 0
2747 29 1 16.563005312723988 10.797226297397794 50.848973830813925 0 0 0
1700 18 1 10.27209770274368 22.229907097768237 55.712835088146996 0 0 0
7746 59 1 1.0595017337785444 19.26990249503717 53.534722955776324 0 0 0
19 2 1 12.01751088413265 0.8517361551594854 59.21820645688567 0 0 0
6808 57 1 3.1793321843209728 4.3454551558716945 51.26079250476028 0 0 0
3865 10 1 17.811789096929797 21.142059095391314 48.30347986894632 0 0 0
1063 14 1 10.027505779157122 13.086185822799436 54.93650718886576 0 0 0
6879 23 1 11.006836902118419 26.35198083417061 48.64826091283954 -1 0 0
7579 19 1 4.512990799512918 13.972974625413528 57.57977441275569 0 0 0
4287 21 1 16.387681238778864 1.7633328779248316 51.2543340850637 -1 0 0
610 51 1 11.512288396434542 9.125907459149657 55.51951368661231 0 0 0
2240 23 1 14.817673674139796 25.891179129547385 54.320886588972364 -1 0 0
6818 57 1 9.102755392288248 2.714838574606685 59.62730477836631 0 0 0
1690 18 1 3.595535051661241 22.75715181902819 47.42815838222798 0 0 0
568 30 1 15.244186291476776 7.024014777960488 56.59561370257657 0 0 0
308 5 1 12.699419758619777 7.0729990563688965 59.43873000752563 0 0 0
7496 29 1 3.7657417251378535 11.858428985076426 51.681404981600416 1 0 1
605 51 1 7.91101357187864 10.510163051785685 52.618357209966646 0 0 0
7712 61 1 5.214995021595455 16.79410038524452 52.9401380823191 0 0 0
1486 15 1 18.552440778444364 17.031359220550822 59.699441289128266 0 0 1
1588 38 1 8.864797720365294 19.315601387075827 52.30195683151213 1 0 1
1043 27 1 18.837333912822196 13.576396805174022 59.31596390569856 0 0 0
7532 58 1 6.771167507353339 11.789744614688953 57.234085582992286 1 0 0
7299 54 1 2.372805209915144 9.54530793174087 57.39653993725099 0 0 0
2651 27 1 17.160493513321725 7.779172413619972 46.70313993701885 0 0 0
234 20 1 15.081768455274668 3.4797949589932897 58.373331364077174 1 0 1
7052 49 1 4.531805903242423 7.600915761241231 54.500091821768635 1 0 0
5380 16 1 13.441140266738865 20.510836843111363 54.43566147473032 1 0 1
3572 16 1 11.035712282982661 20.748706182472123 50.00253917085751 1 0 1
8241 60 1 3.6218594341807044 22.105132504166324 59.04327428658702 1 0 1
7531 58 1 6.507403164729199 11.851471745197442 55.83237627079116 1 0 0
607 51 1 8.612858687074516 8.44407496580123 53.903591420713106 0 0 0
7710 61 1 3.1543699609796505 15.947748784378003 51.51011881720822 0 0 0
20 2 1 13.341163546197224 0.8809616043833183 59.875724508542596 0 0 0
7302 54 1 3.7244487351002364 9.451704622607831 59.76468440233079 0 0 0
566 30 1 14.653274410863157 7.501100714203933 54.54869560369549 0 0 0
16 2 1 11.025973352057623 1.5910958442003884 56.31340081810919 0 0 0
1033 33 1 12.17361792356924 11.279800901520902 52.56318336580903 0 0 1
565 30 1 13.617301221201213 7.717887871509874 53.41662980417985 0 0 0
7821 11 1 6.417241109881664 20.2110620037226 56.079303184603916 1 0 1
6209 16 1 12.493813381893036 21.25490374141404 53.52103344335241 1 0 1
233 20 1 15.075837550135704 2.922381671163817 56.99337641687915 1 0 1
1595 38 1 13.005837189314462 19.219375222905384 59.09561355709061 1 0 1
613 51 1 12.787310449894733 10.229142664747132 58.441844652355634 0 0 0
7402 23 1 17.30729647247116 26.13987466414935 59.559994126427014 -1 0 0
7051 56 1 3.774391003582175 7.49511699810939 53.19855232492776 1 0 1
603 51 1 7.018801366875228 10.035256428229564 50.311447130985044 0 0 0
1482 15 1 14.815335603599204 18.090894392055237 56.58025986316311 0 0 1
8240 60 1 3.9224899668970776 22.50022405676729 57.619879417058876 1 0 1
6814 57 1 5.358094711261618 2.4361861160342686 56.80413735263897 0 0 0
1584 38 1 5.372103628031193 18.23857029416846 48.68804228873568 1 0 1
7056 49 1 7.079058992062275 8.617196819439293 57.097089581315615 0 0 0
1742 23 1 14.170121612076384 25.44172136576115 52.99201040195461 -1 0 0
2960 32 1 18.262530430498714 12.858243071654961 47.17034326538614 0 0 0
7822 11 1 6.9050200665292065 20.993534608805998 57.32993042641873 1 0 1
5736 23 1 18.153889419465788 0.7333267562061179 59.116543718300996 -1 1 0
1693 18 1 5.773316600908106 22.53626247466328 49.17838354787693 0 0 0
1062 14 1 9.195344450981255 14.229044640137367 54.50098447356875 0 0 0
226 20 1 11.832614307692477 2.410890875180881 51.37360388591476 1 0 1
2295 16 1 9.076438867604447 21.520266151475756 47.03684016594179 1 -1 1
606 51 1 7.577004070494857 9.141083326246484 52.98977322952833 0 0 0
560 30 1 11.507097963111049 7.777562424195501 49.543944431897735 0 0 0
2648 26 1 15.692687102190888 5.59102405883353 51.56122770504748 0 0 1
7535 58 1 9.41198664770368 13.11193759435261 59.802133762811025 0 0 0
17 2 1 12.358779391356812 1.259582907725841 56.8669677551307 0 0 0
15 2 1 10.210044881585311 0.44699033404202715 55.95249459636298 0 0 0
1480 15 1 13.143612853438421 17.30664588375741 54.6344023694009 0 0 1
2959 32 1 18.11649969216945 11.503775247954255 46.59541899912559 0 0 0
8269 63 1 2.9484102483522863 24.71059028245389 50.133413153782364 1 0 1
4193 17 1 16.64205387447377 26.00542588603646 46.33765775041182 0 0 0
7494 29 1 2.2316845078802956 12.094549110460964 49.90987670844988 1 0 1
2752 29 1 18.25586866672285 10.339596355736886 55.344953748218394 0 0 0
6817 57 1 8.582413715216639 3.1971474841492618 58.333817827691334 0 0 0
3656 35 1 12.45679305281139 18.022830656476444 46.28101369470933 0 0 0
2612 25 1 18.44894106499088 6.450044470413719 54.209306912926834 0 0 0
596 30 1 11.11745113806638 7.937599344108754 48.038657351780074 0 0 0
597 51 1 3.0624158059782514 11.751625374258143 46.195320528403805 0 0 0
8037 11 1 0.19721274511502984 21.830931499056632 48.997370770305146 1 0 1
3864 10 1 17.64591298365524 20.785232048097836 46.92567936847412 0 0 0