LAMMPS data file via write_data, version 29 Oct 2020, timestep = 34000000

10752 atoms
2 atom types
10752 bonds
3 bond types
10752 angles
3 angle types
10752 dihedrals
3 dihedral types

-0.13743922119518892 31.00535922118296 xlo xhi
-0.11875121437839908 26.789471214347166 ylo yhi
-1.2600528844947405 284.25941288382114 zlo zhi

Masses

1 14
2 15

Pair Coeffs # lj/cut/omp

1 0.0914 3.95
2 0.1947 3.75

Bond Coeffs # harmonic/omp

1 449.5 1.53
2 449.5 1.53
3 449.5 1.53

Angle Coeffs # harmonic/omp

1 62.0967 114
2 62.0967 114
3 62.0967 114

Dihedral Coeffs # opls/omp

1 1.411 -0.271 3.145 0
2 1.411 -0.271 3.145 0
3 1.411 -0.271 3.145 0

Atoms # molecular

230 2 1 5.656603930534407 2.7131130931075234 1.7199934565754655 0 0 0
232 2 1 5.707219105358624 2.676311001644468 4.323727092162688 0 0 0
228 2 1 5.39840828725965 3.0800255346388377 -0.7550731008108932 0 0 0
4 1 1 2.173894160256738 0.5126950060250166 3.1937344022283742 0 0 0
231 2 1 6.170385665796782 3.3711521434474103 3.0513705653183987 0 0 0
229 2 1 6.145685649526241 3.503953787855258 0.5333108752672855 0 0 0
2 1 1 2.2479162424911725 0.7085455194704707 0.6831989875905704 0 0 0
5 1 1 1.68191068092798 26.696111541489437 4.445943732335408 0 -1 0
1 1 1 1.8797453226543341 0.026715315609895707 -0.6546777573933287 0 0 0
450 3 1 1.9815954667888036 4.564369007998958 -0.7243972675101027 0 0 0
454 3 1 2.0244986590428744 4.568804859876996 4.455621356480998 0 0 0
452 3 1 1.8657801434351646 4.606267204579465 1.9141615190838568 0 0 0
3 1 1 1.5835819705321963 -0.030017253828889298 1.8398028321574245 0 0 0
451 3 1 2.1676153328015904 5.31985548568001 0.5725883961788489 0 0 0
453 3 1 2.370355551347269 5.354756349151277 3.1461661660996487 0 0 0
6 1 1 2.2843144523316252 0.3380340336904703 5.7674990859243005 0 0 0
455 3 1 2.588339429291921 5.202115885730209 5.720782375307413 0 0 0
2915 14 1 13.207322331913469 2.6603458923842456 1.792213808118516 0 0 0
2914 14 1 13.99514662298795 2.2241352155713088 0.5628606714836071 0 0 0
2692 13 1 9.039496657926131 0.31692244155904303 4.572880751223246 0 0 0
2690 13 1 9.077801960162944 0.6578510908140645 2.0850902964006477 0 0 0
2913 14 1 13.496632402975763 2.7588781551384867 -0.7702124417770788 0 0 0
2917 14 1 13.109758540138358 2.59892584300635 4.368634303734897 0 0 0
2691 13 1 9.849808975215822 0.6737337353520381 3.388662681465515 0 0 0
2916 14 1 13.721218513893456 2.0726871926804624 3.080870504902806 0 0 0
2912 13 1 9.270330079097114 1.1125173870932954 -0.42683905173640013 0 0 1
3139 15 1 10.146352732104807 4.659032428473326 3.3519804702813083 0 0 0
3137 15 1 10.365221268149371 4.757615294420366 0.8284145381017254 0 0 0
2689 13 1 9.938453859222092 0.701038436907865 0.8068919632772222 0 0 0
3360 15 1 9.79080930050304 5.31439010823383 -0.47889239902964686 0 0 1
3138 15 1 9.619059736427683 5.299709383231194 2.064281152852675 0 0 0
3140 15 1 9.54718086652077 5.210504980845573 4.672078613608447 0 0 0
3141 15 1 9.693484675050962 4.611929252731721 6.014434614928757 0 0 0
674 4 1 5.9288880156941 7.281625268321193 -0.3136456328250825 0 0 0
676 4 1 6.046893354962573 7.315311316127191 2.1764269018672655 0 0 0
678 4 1 5.898492125439995 7.594266800944924 4.662282043704951 0 0 0
677 4 1 6.44519022038175 8.158207950851017 3.39667754073786 0 0 0
675 4 1 6.709916630299404 7.801866389754351 0.8485317590586106 0 0 0
900 5 1 2.27726672079677 9.71899612435388 0.8010507236628785 0 0 0
902 5 1 2.119972811104853 9.7342377839028 3.3501374609017684 0 0 0
899 5 1 2.113900314097218 8.946731055541177 -0.5070349419168829 0 0 0
901 5 1 2.1741331309487637 8.925221431731632 2.0237403382064696 0 0 0
903 5 1 2.217326636498833 8.776224913059268 4.502830386116663 0 0 0
1123 6 1 5.947703164386602 11.491879862147828 -0.6644296494801689 0 0 0
1127 6 1 6.12163786853281 11.86082656905781 4.495074382938118 0 0 0
1125 6 1 6.023380545836337 11.69139009140753 1.905955021552142 0 0 0
1124 6 1 6.3680868087000775 12.261831745769788 0.5300453251394612 0 0 0
1126 6 1 5.913922542982191 12.639967189294888 3.1729381736320468 0 0 0
679 4 1 6.47256500553944 8.226584833740588 5.9488688697321725 0 0 0
3362 16 1 13.722964885115703 6.4920864537003355 0.8875052074448884 0 0 0
3364 16 1 13.360669607378695 6.6064560396048675 3.3411257500489224 0 0 0
3365 16 1 13.626297681918567 7.380068216978496 4.645377519971696 0 0 0
3363 16 1 13.759414888644761 7.3502780082041905 2.1003760736302444 0 0 0
3589 17 1 10.040621493546336 9.972522669771672 4.378805782874037 0 0 0
3587 17 1 9.796018812656401 9.913288744584458 1.8894921546956152 0 0 0
3588 17 1 10.387145650353496 9.216169859670227 3.0753344970800134 0 0 0
3586 17 1 10.24671899914496 9.290733215992628 0.5722166783569007 0 0 0
3585 17 1 9.667023066662523 9.862255493754455 -0.7199737998341619 0 0 0
3810 18 1 14.104989579670384 11.290061487766755 0.7306690107594349 0 0 0
3812 18 1 14.208572983002325 11.386202691637992 3.352305475262953 0 0 0
3361 16 1 13.509713790206517 7.294539723407031 -0.4432060225730443 0 0 0
3809 18 1 13.518887862420184 11.96750543665299 -0.5214498101384111 0 0 0
3811 18 1 13.364015032409982 11.577068558118361 2.0871307446328795 0 0 0
3813 18 1 13.542887294954303 11.821324351767188 4.637627448574171 0 0 0
3814 18 1 14.288032117267527 11.484829411795573 5.9249589398636875 0 0 0
1345 7 1 1.8417648949487995 14.385496709868802 -0.7285819729832362 0 0 0
1349 7 1 1.431795755248179 14.270551339411373 4.368836147193869 0 0 0
1347 7 1 1.6610228527532198 14.219990096802922 1.7850450271263263 0 0 0
1348 7 1 2.3612020180746094 14.128030761417376 3.150662411018084 0 0 0
1346 7 1 2.62980164152725 14.282960193498427 0.6080761864915387 0 0 0
1570 8 1 5.921373817148646 16.70696236055312 1.9731651558948573 0 0 0
1572 8 1 5.9108098316347215 16.894092323546282 4.505381216705277 0 0 0
1571 8 1 6.581246583220706 16.305430139806578 3.294274960169841 0 0 0
1569 8 1 6.556054185681746 16.184784290049123 0.7021486956056504 0 0 0
1792 8 1 5.946679249087364 16.64078331000368 -0.6076795223331338 0 0 1
1797 9 1 1.49205929582321 17.99445940997943 4.358830991455275 0 0 0
1793 9 1 1.484953096144878 18.221480854914283 -0.5486338965909644 0 0 0
1795 9 1 1.4318412698871485 18.20254908286534 1.914045775423285 0 0 0
1796 9 1 2.2032831697004354 18.491944880015424 3.171774811761444 0 0 0
1794 9 1 2.314070412467027 18.528977054678503 0.6762578935502457 0 0 0
1573 8 1 6.466761554887288 16.32293084156089 5.775430648251278 0 0 0
1798 9 1 2.2962793599884948 18.251497384478483 5.67297848761701 0 0 0
4034 19 1 10.182076415206058 13.53831968567997 1.0879264734694685 0 0 0
4036 19 1 10.141076542501708 13.52599114016751 3.6395453074446156 0 0 0
4035 19 1 10.260489307368006 14.355598338291488 2.395391164960873 0 0 0
4037 19 1 10.226889534614054 14.247602244343744 4.9201182023006655 0 0 0
4259 20 1 13.664788616450974 16.510061126727308 2.0256268809082263 0 0 0
4257 20 1 13.781771842795845 16.481714460827217 -0.5543895224892262 0 0 0
4260 20 1 13.597269645344964 15.61084974780534 3.2825384473839128 0 0 0
4261 20 1 13.56034639484821 16.283917122130042 4.680486928427888 0 0 0
4258 20 1 13.941134981512562 15.690619929264253 0.7264965553966056 0 0 0
4033 19 1 10.095513288580579 14.43908469544933 -0.0705652495152036 0 0 0
4484 21 1 9.970424592425521 18.23092727074601 3.636259859134613 0 0 0
4482 21 1 10.187531248641893 18.407169413644937 1.0048789363108845 0 0 0
4483 21 1 9.980320120849848 19.081452165067056 2.349924817655122 0 0 0
4481 21 1 9.762692892154845 19.0800365840892 -0.2983781289956299 0 0 0
4485 21 1 9.743968523278841 18.96549062584871 4.975408610603024 0 0 0
4706 22 1 14.02987408986261 20.296813793922425 0.6597734417493628 0 0 0
4038 19 1 9.619652947676908 13.488120025033455 6.1262627987989475 0 0 0
4486 21 1 9.935749648035623 18.022022555521808 6.134418259802298 0 0 0
2467 12 1 6.006975635363677 24.99374713387024 1.189397913101074 0 0 0
2469 12 1 6.0736579285387355 24.918003170531875 3.7602114997524883 0 0 0
2468 12 1 5.189041192192473 25.070897683424395 2.5161401034940356 0 0 0
2466 12 1 5.1585297679692355 24.95501166863843 -0.11821858481711822 0 0 0
2470 12 1 5.389488153460165 24.974286882444336 5.132930039940129 0 0 0
2240 10 1 5.805357258884581 20.711429872531316 -0.5595170994784466 0 0 1
2020 10 1 5.488269044709251 20.532012971425857 4.6398537668678985 0 0 0
2245 11 1 1.0429949681698256 22.347742138046936 4.541164906644114 0 0 0
2018 10 1 5.725725375923172 20.52918536981217 2.038324545100526 0 0 0
2241 11 1 1.6340316156412549 22.662649111819515 -0.45793721733831827 0 0 0
2019 10 1 6.393589902454394 20.618266228171098 3.4078066576815145 0 0 0
2244 11 1 2.0034900740302475 22.53998772486308 3.436875405900099 0 0 0
2242 11 1 2.403133359167267 22.59961290108215 0.8568466376561092 0 0 0
2017 10 1 6.478695150871031 21.03502741778298 0.7778920766260788 0 0 0
2243 11 1 1.4285772181823269 22.61753126454657 2.0214099867474236 0 0 0
2246 11 1 1.827954781519347 22.23599441804237 5.857516073519633 0 0 0
2471 12 1 6.337516150541615 25.098600693864547 6.2650972893854195 0 0 0
2021 10 1 6.325154517216695 20.6772770650026 5.858628185981649 0 0 0
5157 24 1 13.077458774505445 25.344334600231814 4.640369865320853 0 0 0
5153 24 1 13.250026920498868 25.25474163457198 -0.4828575009903968 0 0 0
5155 24 1 13.012106254414883 25.024653469711826 2.148170389370674 0 0 0
5156 24 1 13.649128449170899 24.525805716558825 3.4795662420102254 0 0 0
5154 24 1 13.608937792321356 24.53345592875539 0.800958417030059 0 0 0
4708 22 1 13.841046413899859 20.489377176090574 3.309074733174273 0 0 0
4707 22 1 13.382790529327755 20.913928471614113 1.9093240124336956 0 0 0
4705 22 1 13.5729301672336 20.892083011039233 -0.6938287935558701 0 0 0
4709 22 1 13.133651841232389 21.009838842154654 4.530794636537006 0 0 0
4929 23 1 9.48771970501873 23.37982976071973 1.6542934738603785 0 0 0
4931 23 1 9.512173873894827 23.211453483636006 4.131859425942119 0 0 0
4930 23 1 9.894052867521312 22.51871281187079 2.8237382682569407 0 0 0
5152 23 1 9.660879405723515 22.620685460052677 0.3580814556062626 0 0 1
5151 23 1 9.485074140089358 23.573521050281872 -0.8083124003827941 0 0 1
5158 24 1 13.680588055695813 25.065376375207425 5.979836526950372 0 0 0
4710 22 1 13.67831923219927 20.30127060094626 5.773745268415043 0 0 0
233 2 1 6.181867034747417 3.2561691522397664 5.640534721818028 0 0 0
9 1 1 1.8073077013342331 26.374052266443165 9.598348339829114 0 -1 0
236 2 1 5.672196285080284 2.4573207039904466 9.402456394929466 0 0 0
234 2 1 5.710475731615712 2.601924419024094 6.923811705315753 0 0 0
235 2 1 6.222185577604118 3.1742720292970605 8.19807394881895 0 0 0
237 2 1 5.984447596627389 3.2501612158956252 10.734876037861419 0 0 0
238 2 1 5.820946387868183 2.501546531422624 12.08435203649778 0 0 0
8 1 1 2.176238014843238 0.20203626948157571 8.251580027492595 0 0 0
10 1 1 2.269987074883006 0.1992835609194475 10.870954471148492 0 0 0
11 1 1 1.8739747531841644 26.449586811308038 12.215016099133216 0 -1 0
7 1 1 2.0602538191600828 26.34321860645923 6.978982033542705 0 -1 0
458 3 1 1.990998212925248 4.665764435624033 9.469289291218175 0 0 0
460 3 1 1.805470535353347 4.6988946629650155 11.97651269922442 0 0 0
456 3 1 1.9975123202510106 4.656828952462474 7.025979877955095 0 0 0
459 3 1 2.428849584231822 5.24174383313206 10.792715004661707 0 0 0
457 3 1 2.5858824066862574 5.334396109854423 8.243665964435532 0 0 0
2918 14 1 13.837677216952608 2.0887725293242863 5.6401877171582715 0 0 0
2693 13 1 9.836209816045303 0.4585499951578754 5.871059836926687 0 0 0
2922 14 1 13.734041793955944 2.2655478117640913 10.808402334070365 0 0 0
2698 13 1 9.520966768947211 0.060895463454723936 12.34466187939723 0 0 0
2694 13 1 9.190799189095426 0.25086982670840235 7.2482544022934245 0 0 0
2921 14 1 13.273560360483163 2.9717862955971186 9.503372379046057 0 0 0
2919 14 1 13.396682674337825 2.7984715446806168 6.996267167729396 0 0 0
2923 14 1 13.068449983120125 2.796416619580196 12.082384881560612 0 0 0
2696 13 1 9.355728995133301 0.2058285304784057 9.844141508476596 0 0 0
2697 13 1 10.202318582272728 0.5165593137055929 11.08092712912125 0 0 0
2695 13 1 10.051779632099544 0.4771288614322927 8.51488103871287 0 0 0
2920 14 1 13.963866571809394 2.2809428650560886 8.350425630860133 0 0 0
3145 15 1 9.819040272996025 4.815149205438868 11.009556921129096 0 0 0
3143 15 1 9.664831899202355 4.960661362748728 8.422506160023124 0 0 0
3146 15 1 9.183995991652809 5.361496355369949 12.278020436486553 0 0 0
3144 15 1 9.275140392295082 5.586909250891703 9.769364233543048 0 0 0
3142 15 1 9.222326691907302 5.5836887934559885 7.115240389207495 0 0 0
904 5 1 2.005456390238109 9.534903642783052 5.825712793130215 0 0 0
1128 6 1 5.984994480688314 12.592116080547589 5.849638069055614 0 0 0
684 4 1 5.158252969191691 7.385226951540278 12.226875193767244 0 0 0
680 4 1 5.830987935624573 7.633536312669721 7.218296968842621 0 0 0
682 4 1 5.539553103386023 7.560773949282509 9.665073701002306 0 0 0
905 5 1 2.037806402603057 8.766492411486059 7.062931286767437 0 0 0
683 4 1 6.151891778538964 7.649890331646327 11.068637381817698 0 0 0
681 4 1 6.511898895096172 7.8433444326054556 8.53774411703109 0 0 0
906 5 1 1.8731811864325056 9.497917527165098 8.408055771148662 0 0 0
908 5 1 1.763957328188906 9.474517327008854 10.763832865955399 0 0 0
907 5 1 1.2509714859148002 8.78378923967729 9.565564981749866 0 0 0
909 5 1 1.2099458347125343 8.99942895786256 12.094245339263798 0 0 0
1133 6 1 5.7278042614486795 11.388722487132622 12.20623641137367 0 0 0
1131 6 1 5.772162624098653 11.423460536444946 9.66827868270267 0 0 0
1132 6 1 5.388026604736725 12.141309574423744 10.955516932710887 0 0 0
1130 6 1 5.386522480473664 12.25422521024756 8.403401945606316 0 0 0
1129 6 1 5.8406460776424645 11.685079329894258 7.069015967858606 0 0 0
1355 7 1 1.0760646410071202 13.647544994727548 11.903127931446686 0 0 0
3366 16 1 13.8089361693342 6.706764726821392 6.022176225995742 0 0 0
3590 17 1 10.451526710646945 9.29774178468922 5.73655770566748 0 0 0
3368 16 1 13.507643274600941 6.746912853917945 8.526571678154115 0 0 0
3370 16 1 13.644343841950635 6.525438250424076 11.053611059344215 0 0 0
3369 16 1 13.336505782599192 7.456817044185762 9.92490347899696 0 0 0
3367 16 1 13.771336307646674 7.577251673978191 7.2851143699492145 0 0 0
3371 16 1 13.37361500380084 7.260088186830096 12.351636816171167 0 0 0
3593 17 1 9.474579206521943 9.876942804191053 9.493854331624783 0 0 0
3591 17 1 9.768580716110193 9.981455725775133 6.8948085680565505 0 0 0
3592 17 1 10.237241234598905 9.371783243985917 8.226800425305393 0 0 0
3594 17 1 9.83277498908722 9.211187076844174 10.804120801143249 0 0 0
3595 17 1 9.131344623664665 9.460447986124864 12.088773849197056 0 0 0
3818 18 1 13.646093884793624 10.833190206187098 10.932451872803874 0 0 0
3816 18 1 13.994428127837596 11.196090350488006 8.451684010263866 0 0 0
3819 18 1 13.08722471804801 11.640228086846228 12.117677233288646 0 0 0
3817 18 1 13.282610576178017 11.635238676377858 9.706986205615456 0 0 0
3815 18 1 13.386901918131839 11.740285444954758 7.143270558751329 0 0 0
1350 7 1 2.202897092154243 14.13023745168115 5.624647204145269 0 0 0
1353 7 1 0.922962434081209 14.079356863465256 9.337459484917591 0 0 0
1351 7 1 1.2379605592771135 14.300370349295944 6.7726407235478465 0 0 0
1354 7 1 1.7346869033736203 13.864226982195488 10.587663179035557 0 0 0
1352 7 1 1.8718424048392084 14.232718107828637 8.152257531915907 0 0 0
1574 8 1 5.835525247943116 16.962610825683658 7.071470488573315 0 0 0
1576 8 1 5.61725827693665 16.749315100227832 9.640429857706017 0 0 0
1575 8 1 6.417278654471413 16.373947698686848 8.36160393738004 0 0 0
1578 8 1 5.329568323836731 16.56791246771781 12.179776323823548 0 0 0
1577 8 1 6.171953678182408 16.18651992972809 10.968469644073835 0 0 0
1803 9 1 1.3123843360837588 18.274718324579194 12.10817391592167 0 0 0
1799 9 1 1.4306987937546918 18.09088643185337 6.889354430957358 0 0 0
1801 9 1 1.227284342549178 18.120419163570993 9.42571376302503 0 0 0
1800 9 1 2.1032030715234216 18.464407903424508 8.210471702573768 0 0 0
1802 9 1 1.9307251685565237 18.582436298279184 10.72380579327923 0 0 0
4262 20 1 13.629140508640385 15.39381050384653 5.882988799861352 0 0 0
4043 19 1 9.842279766212616 14.159892895866932 12.589579149968039 0 0 0
4042 19 1 9.377705606137786 13.580551514894816 11.22105433062004 0 0 0
4265 20 1 13.237494021265821 16.193481124315817 9.710416266038024 0 0 0
4040 19 1 9.375866626358464 13.554916818393684 8.6537615397995 0 0 0
4041 19 1 9.92579853368563 14.185285391314535 9.940858088487476 0 0 0
4039 19 1 10.056254384576345 14.142702306381418 7.445429569793731 0 0 0
4267 20 1 13.22182061076984 16.251674516513724 12.306180166423168 0 0 0
4264 20 1 13.662439831921892 15.369680993963893 8.452849409209085 0 0 0
4263 20 1 13.63587413748772 16.220427900518672 7.137693709384331 0 0 0
4266 20 1 13.789658119632323 15.650217832022836 10.988413051008813 0 0 0
4488 21 1 9.832451156809533 17.785899148340505 8.757590094088638 0 0 0
4491 21 1 9.533904783348765 18.574381205931992 12.609073665046749 0 0 0
4490 21 1 9.52428324014997 17.806021005703464 11.315703319085603 0 0 0
4487 21 1 9.646737211544686 18.644074034940402 7.5197286460944355 0 0 0
4489 21 1 9.307707293785079 18.50885251297426 9.984669217089213 0 0 0
4044 19 1 9.436577084140685 13.308867812329932 13.829898245751536 0 0 0
2475 12 1 6.314467120187225 25.177798308360035 11.46823905764766 0 0 0
2473 12 1 6.478499852748692 25.37738585643907 8.909529436258916 0 0 0
2474 12 1 5.602639306303902 25.083336766118105 10.171549941707724 0 0 0
2476 12 1 5.400746911456453 24.81800004655416 12.63629343462593 0 0 0
2472 12 1 5.62365134387252 25.362212160205516 7.607637961282771 0 0 0
2247 11 1 1.0183739155146712 22.222934502746902 7.127019431426911 0 0 0
2024 10 1 5.554727581522083 20.701978480077862 9.707868510661676 0 0 0
2022 10 1 5.477543815035201 20.548592269974005 7.150515318786907 0 0 0
2026 10 1 5.729824553901356 20.26921216622577 12.207990188584535 0 0 0
2250 11 1 2.2092030258554054 22.635311511505222 11.001801256715098 0 0 0
2023 10 1 6.308837384718709 20.942147680431365 8.429057968421027 0 0 0
2025 10 1 6.14283007365876 21.145520820059804 11.000635268969319 0 0 0
2248 11 1 1.9103632876026881 22.265453066750492 8.361302220740638 0 0 0
2249 11 1 1.2746347292279674 22.67346291829794 9.715233624474138 0 0 0
2251 11 1 1.5075517520545099 22.89982878262371 12.282676401018467 0 0 0
4932 23 1 9.94224878647075 22.579055839439608 5.481051646195028 0 0 0
5159 24 1 13.20962806666329 25.813311333138962 7.229062735456711 0 0 0
5163 24 1 13.240600758901497 25.546250161931432 12.325359747046837 0 0 0
5161 24 1 13.236364469740815 25.756042281647822 9.806943536549817 0 0 0
5162 24 1 13.636798023399745 24.866148058496027 10.98568802310207 0 0 0
5160 24 1 13.702230479668824 25.151134626723515 8.492025212104732 0 0 0
4714 22 1 13.85316413373593 19.80824369606238 10.91008817106167 0 0 0
4712 22 1 13.818041844777452 20.075115491503386 8.297928947030618 0 0 0
4715 22 1 13.121180203691754 20.386435807012425 12.100409115935744 0 0 0
4713 22 1 13.29287211916472 20.431005821061895 9.667095489068728 0 0 0
4711 22 1 13.304336320772897 20.94101774522164 7.113422641443062 0 0 0
4933 23 1 9.795290457458496 23.46007981262802 6.706082477766813 0 0 0
4934 23 1 10.24754598760571 22.78166610700064 8.002854779084478 0 0 0
4935 23 1 9.943017418559737 23.582128068358966 9.23095433455459 0 0 0
4937 23 1 9.99044074023422 23.616909684915207 11.746614635172952 0 0 0
4936 23 1 10.19189255550373 22.778102343433115 10.492337424560398 0 0 0
12 1 1 2.0666001269883383 0.4298071705736679 13.394704687422323 0 0 0
239 2 1 6.099885348000861 3.2975629072741635 13.36850055489815 0 0 0
241 2 1 6.0501752619282545 3.3212984654963345 15.926240598759502 0 0 0
240 2 1 5.697249248615203 2.613042635037736 14.664030943321999 0 0 0
242 2 1 5.390639905615218 2.645063736312604 17.172507270834178 0 0 0
14 1 1 2.272169859934526 0.45655924052191366 15.956159260255706 0 0 0
16 1 1 2.02471193610044 0.5952118362458498 18.549426434035475 0 0 0
13 1 1 1.436158729006993 0.0027085347956085637 14.73519268067826 0 0 0
243 2 1 5.936716158602575 3.296521650821498 18.410040331192242 0 0 0
464 3 1 1.6024065606466602 4.730759471300247 17.126733986488844 0 0 0
462 3 1 1.5220085096342197 4.774062912268922 14.564532682618987 0 0 0
15 1 1 1.4687468191674211 0.03995129473396572 17.249248850351023 0 0 0
461 3 1 2.113425655227791 5.408161272500108 13.28414923456627 0 0 0
244 2 1 5.395186028983764 2.609803071911818 19.633126085399855 0 0 0
466 3 1 1.4109140822465138 4.743381797117877 19.641164986079403 0 0 0
17 1 1 1.510464704593942 26.75341367738541 19.76337458778377 0 -1 0
465 3 1 2.0611288912334675 5.353038333753023 18.435227111048995 0 0 0
463 3 1 2.193989592020218 5.35258898160371 15.82394330907455 0 0 0
686 4 1 5.110119515027444 7.465328951639094 14.870335029177266 0 0 0
2924 14 1 13.590040645098128 2.2318356843447664 13.428817928297988 0 0 0
2699 13 1 9.95514448740614 0.682361451927232 13.609540906538323 0 0 0
2925 14 1 12.879506999049973 2.6420026261997918 14.733093791173875 0 0 0
2927 14 1 12.991428891050688 2.779611438626263 17.23434099978276 0 0 0
2928 14 1 13.628872739074009 2.270122757183508 18.556191383397362 0 0 0
2702 13 1 9.167440099745193 0.8325332123301649 17.34748409680572 0 0 0
2700 13 1 9.15687789064346 0.5824375093518419 14.849720319584407 0 0 0
2703 13 1 10.004508408344147 0.9091786093218248 18.602006101453387 0 0 0
2701 13 1 9.972545587498026 0.9689212021035252 16.113092841005656 0 0 0
2926 14 1 13.662648957570337 2.293439333864955 15.95029545402317 0 0 0
3151 15 1 9.92051122888332 4.842730918784339 18.602244458835138 0 0 0
3147 15 1 9.751272366942546 4.821921923973168 13.560914025602079 0 0 0
3149 15 1 9.89555266727617 4.907320973586863 16.065070442827405 0 0 0
3148 15 1 9.012073883399852 5.218637443595092 14.846139075038035 0 0 0
2704 13 1 9.179360938072811 0.619068407329988 19.862353104041897 0 0 0
3152 15 1 9.148969845989052 5.097838187110618 19.85539804998586 0 0 0
3150 15 1 9.122271591640153 5.215236859778051 17.316062740383376 0 0 0
910 5 1 1.8578304287243965 9.711625940774562 13.277791406413142 0 0 0
685 4 1 5.909164330228051 7.471631679768898 13.584579625784698 0 0 0
688 4 1 5.083185853497153 7.175816076005992 17.29762724454371 0 0 0
912 5 1 2.007299600418222 9.574191406284344 15.952973306181825 0 0 0
914 5 1 1.816233775514389 9.425399741198872 18.51945805976055 0 0 0
911 5 1 1.3987307074298567 9.046763202902236 14.612256669941289 0 0 0
913 5 1 1.2888786578932108 9.060069808630889 17.151839755531302 0 0 0
687 4 1 6.016464440033275 7.477137283109272 16.101517870514094 0 0 0
689 4 1 5.84284829176559 7.327175616222691 18.647533594798105 0 0 0
1135 6 1 5.682251241302834 11.231525272326778 14.800341324722613 0 0 0
1137 6 1 5.3101320994286 11.263106058193229 17.298646105897095 0 0 0
1139 6 1 5.182136874581085 11.244725414315354 19.890842636906118 0 0 0
1134 6 1 5.593216043917051 12.092831080904205 13.560124580555414 0 0 0
1138 6 1 5.118312138552954 12.086281130549455 18.56091188708142 0 0 0
915 5 1 0.9385171964129781 9.18666729854469 19.752256886455488 0 0 0
690 4 1 5.036641156625833 7.134438327944746 19.91003061481385 0 0 0
1136 6 1 5.594114085927038 12.099435801079833 16.0543585890155 0 0 0
1357 7 1 1.0336036837425278 13.664699533406543 14.515537673011798 0 0 0
1359 7 1 1.1315367269600294 13.769168460415534 17.124534803065 0 0 0
3596 17 1 9.76185065252248 8.960508113489434 13.33152946990699 0 0 0
3820 18 1 13.385089446270646 10.967823762809447 13.523212989183882 0 0 0
3374 16 1 13.437936872914278 6.410487341087517 16.157535382594673 0 0 0
3376 16 1 13.487837567383945 6.4911203124913355 18.709239394600456 0 0 0
3372 16 1 13.812458512068233 6.534434106115682 13.607093204258334 0 0 0
3373 16 1 13.153492757056533 7.195615867026194 14.84798791824393 0 0 0
3599 17 1 9.200366093290985 9.688772215624851 17.210526158386795 0 0 0
3597 17 1 8.989621012699521 9.461217944991375 14.631159946039448 0 0 0
3598 17 1 9.694787284781636 9.093475958090826 15.899487587546371 0 0 0
3600 17 1 9.817464615217851 9.13749221132846 18.501459168146244 0 0 0
3822 18 1 13.435992001061845 10.997270220109343 16.06946802786349 0 0 0
3824 18 1 13.71321235584229 11.08680589613477 18.628385668718 0 0 0
3375 16 1 13.044723683426554 7.171028090720299 17.405086414821973 0 0 0
3823 18 1 13.231750330503635 11.765392805668048 17.340396817642485 0 0 0
3821 18 1 12.826589760774677 11.581822146365711 14.77784468327112 0 0 0
3825 18 1 13.442313975136745 11.88182754892986 19.924424942525956 0 0 0
3377 16 1 13.074855121180859 7.30782219878199 19.907927419270997 0 0 0
4048 19 1 9.52791336830678 13.23600611251743 19.00428169987063 0 0 0
3601 17 1 9.339985084510905 9.872345713648551 19.769457384391107 0 0 0
1579 8 1 5.956759287718813 16.02294674496822 13.46763228569303 0 0 0
1356 7 1 1.8517553764761698 13.856839472748916 13.203348838694804 0 0 0
1358 7 1 1.886497800947816 13.777042555342767 15.78589132095897 0 0 0
1360 7 1 1.9837810784012726 13.92332433255488 18.371952180169178 0 0 0
1580 8 1 5.327239055076301 16.505601111159123 14.728905815315088 0 0 0
1582 8 1 5.2223549139893395 16.151338381752687 17.21986499761185 0 0 0
1581 8 1 6.0588337255078875 15.971634482959079 15.917939797107671 0 0 0
1583 8 1 6.005058356666622 16.031848751797863 18.525668543680982 0 0 0
1807 9 1 1.7360420971421073 17.92530004629247 17.159591744441045 0 0 0
1805 9 1 1.5748781289145213 18.115373381785997 14.673927088067938 0 0 0
1804 9 1 2.09799429536031 18.70640207698163 13.336793856064734 0 0 0
1806 9 1 2.316017967114565 18.535827321431768 15.919389892479266 0 0 0
1808 9 1 2.386812630737674 18.468502599895857 18.49673240742417 0 0 0
1584 8 1 5.264481217414358 16.129379838214177 19.827486656532514 0 0 0
1361 7 1 1.2674459146616983 13.807897677664998 19.704227331920908 0 0 0
1809 9 1 1.7498496024709151 17.98222926218999 19.809023768343582 0 0 0
4268 20 1 13.559472299442577 15.469794478058752 13.6032122103843 0 0 0
4046 19 1 9.225824102408579 13.281381631975455 16.41982301807435 0 0 0
4047 19 1 9.326941699458063 14.064464434724874 17.746423882600705 0 0 0
4045 19 1 9.785632271011554 14.003847950813189 15.175416070904735 0 0 0
4269 20 1 13.301402815783806 16.169539447620725 14.961308253791845 0 0 0
4271 20 1 13.435553472854766 16.26701627146504 17.43505986808734 0 0 0
4496 21 1 10.07932229356632 17.8497422241603 18.9815775465749 0 0 0
4494 21 1 10.256473455308699 17.94137652289854 16.43539328478718 0 0 0
4272 20 1 13.620082844054465 15.636320451116617 18.844749243058505 0 0 0
4270 20 1 13.52596135163416 15.341107123305845 16.23543430450282 0 0 0
4492 21 1 9.984067109443961 17.83181051365613 13.8885326474062 0 0 0
4273 20 1 13.643774050350148 16.426014481591917 20.104487095677698 0 0 0
4493 21 1 9.710520938010804 18.591940773382042 15.170552039567095 0 0 0
4495 21 1 9.69573360291293 18.582556566034565 17.679390833471306 0 0 0
4497 21 1 9.59802032629246 18.506663235448553 20.28322950083423 0 0 0
4719 22 1 12.997112458971346 20.940932692380837 17.330649807255206 0 0 0
4049 19 1 9.679739539985253 14.064308862047882 20.305511657687237 0 0 0
2477 12 1 6.0429176412819405 25.322011585219382 13.919711701677235 0 0 0
2479 12 1 5.931356352294977 25.594185530965408 16.462876099612224 0 0 0
2481 12 1 5.834707855382474 25.52810141222817 19.067181429720584 0 0 0
2478 12 1 5.530535069403026 24.72940425175201 15.24592787303769 0 0 0
2480 12 1 5.226714380357852 25.08292979791752 17.71298228731268 0 0 0
2027 10 1 6.253258654586556 20.830889760399472 13.53940136299503 0 0 0
2252 11 1 2.1923373795863137 22.414473843975113 13.53643867874059 0 0 0
2255 11 1 1.3908607354506886 22.4313696333951 17.363369612080046 0 0 0
2028 10 1 5.853828475462599 19.943769764228286 14.715592126363942 0 0 0
2030 10 1 5.726072016079061 20.186285440206316 17.230641178008206 0 0 0
2254 11 1 2.1527112286529024 22.266078324452046 16.012297868702515 0 0 0
2256 11 1 2.244315381154188 22.58141940808402 18.64510611310679 0 0 0
2031 10 1 6.3874126277659125 20.716706801869076 18.48837725839891 0 0 0
2253 11 1 1.3611574776378204 22.614211238059106 14.756417665587918 0 0 0
2029 10 1 6.577098017677309 20.417631330199765 15.994425165053926 0 0 0
2032 10 1 5.635195940945348 20.419738853775367 19.80637810261144 0 0 0
2257 11 1 1.40868224593364 22.30815284505973 19.918384252281104 0 0 0
2482 12 1 5.137044641639852 24.892602035211073 20.276052652528104 0 0 0
4938 23 1 9.739885944860513 22.749642599614326 12.996642123344731 0 0 0
5164 24 1 13.747518837732807 24.84186970603227 13.570877358345392 0 0 0
5167 24 1 13.007884596700757 24.8720242465819 17.180157338927664 0 0 0
5165 24 1 13.201099917756471 25.33027448987577 14.85521969940049 0 0 0
5166 24 1 13.825598759033939 24.542174659240082 15.961287281646914 0 0 0
4718 22 1 13.74301757845008 20.506188912760518 16.026643247470332 0 0 0
4716 22 1 13.82052737870054 19.99973766649521 13.41683270248175 0 0 0
4720 22 1 13.588253627868529 20.175195762427236 18.493162871420154 0 0 0
5168 24 1 13.783289138674963 24.554327733721127 18.4912418244446 0 0 0
4717 22 1 13.105110021962528 20.71072962455778 14.645617193426066 0 0 0
4941 23 1 9.254259668790867 23.760920225025075 16.858189280077745 0 0 0
4939 23 1 9.4993341605087 23.625861077580893 14.210125242432651 0 0 0
4940 23 1 9.5749409292219 22.979152941975812 15.585530021653224 0 0 0
4942 23 1 9.681750434342673 22.955388868229633 18.063064055835113 0 0 0
4943 23 1 9.20783240591794 23.573020643576125 19.366726223229204 0 0 0
4721 22 1 13.163975855651884 20.86775591489955 19.803964721402018 0 0 0
5169 24 1 13.065793903260085 24.826523296175697 19.809210435002292 0 0 0
248 2 1 5.472702418746887 2.5948086271300097 24.752162262296757 0 0 0
246 2 1 5.555299815910133 2.5081267439439205 22.192726390775658 0 0 0
249 2 1 5.775789310349685 3.38351271675746 26.02642401285434 0 0 0
18 1 1 2.1407071052899496 0.38564597931834077 21.035526823608635 0 0 0
22 1 1 2.335576172667107 0.44890536524553803 26.0849851829486 0 0 0
20 1 1 2.370922512565437 0.4449103626684444 23.55538218787733 0 0 0
245 2 1 5.716326179454643 3.365997433031704 20.955715873613666 0 0 0