LAMMPS data file via write_data, version 23 Jun 2022, timestep = 11111117

9706 atoms
2 atom types
9690 bonds
3 bond types
9674 angles
3 angle types
9658 dihedrals
3 dihedral types

0 36.89775039 xlo xhi
0 26.67072 ylo yhi
11.481378876329899 225.2702255236561 zlo zhi
0 6.726262617222737 0 xy xz yz

Masses

1 14
2 15

Pair Coeffs # lj/cut/omp

1 0.0914 3.95
2 0.1947 3.75

Bond Coeffs # harmonic/omp

1 449.5 1.53
2 449.5 1.53
3 449.5 1.53

Angle Coeffs # harmonic/omp

1 62.0967 114
2 62.0967 114
3 62.0967 114

Dihedral Coeffs # opls/omp

1 1.411 -0.271 3.145 0
2 1.411 -0.271 3.145 0
3 1.411 -0.271 3.145 0

Atoms # molecular

1 2 1 4.581612737761299 0.9100360778737279 14.668368132343428 0 0 0
2 2 1 5.548070632263714 0.22565539274982266 15.623470938400168 0 0 0
3 2 1 6.007022143466014 1.090925398153977 16.795758076525537 0 0 0
4 2 1 7.287886626168209 0.5708183153098826 17.539430679733588 0 0 0
5 2 1 7.458036353283095 1.1602676329331465 18.962913652120932 0 0 0
6 2 1 8.789677856187673 0.7583506719273546 19.61416353821964 0 0 0
7 2 1 9.134457690266384 1.086914689342416 21.053112548660827 0 0 0
8 2 1 10.248836984451945 0.23113849470860107 21.69297438649601 0 0 0
9 2 1 10.824253840279448 0.798682256649665 22.988054117283497 0 0 0
10 2 1 11.616512468340108 26.45974178863559 23.79760771517142 0 -1 0
11 2 1 11.763510971973979 0.26858311512615546 25.259983629809202 0 0 0
12 2 1 12.682249289010139 26.06818434872572 26.213511957036026 0 -1 0
8061 54 1 8.060460165538494 8.564106619335632 31.9929457955988 0 0 0
9045 17 1 5.902092170951733 20.119983437718737 21.266103204188255 1 0 0
5624 42 1 3.3310573203668907 7.345877659573493 31.475431415920475 0 0 0
4311 28 1 12.862652972821795 18.45594169325223 12.522724040237204 0 0 1
457 52 1 5.27029723683165 5.078359343742562 15.931293875869386 0 0 0
1733 13 1 5.16850841091676 18.5041672170592 13.810922705808006 0 0 0
987 6 1 3.8931629613436223 9.507751308045552 13.437996870787824 0 0 0
3480 24 1 13.506002982497746 8.634682010191959 13.35324140557457 0 0 1
1000 8 1 18.62425776812323 11.455673450433116 26.593675090226395 0 0 0
2487 19 1 7.519492851843186 25.333471298152702 12.474625752726913 0 0 0
224 2 1 4.201002202011312 0.12392717394640211 13.396717371881978 0 0 0
8440 35 1 0.48335706145370394 13.698764223344721 20.304861281931522 0 0 0
305 53 1 10.604320225795567 2.9375605409765 16.406272979630014 0 0 0
306 53 1 11.629528040751092 2.1398804499786555 17.12410705173012 0 0 0
307 53 1 12.1456449479458 2.8998712520081744 18.340130296019872 0 0 0
308 53 1 13.271098664590326 2.18973936017378 19.087603317262396 0 0 0
309 53 1 13.497408603652156 2.8338789071485624 20.450443096090808 0 0 0
310 53 1 14.564352471588887 1.9992310171194037 21.196254689888164 0 0 0
311 53 1 14.793326126524656 2.4249384132515597 22.64672944833093 0 0 0
312 53 1 16.007816634861886 1.8458644357435867 23.374909728092632 0 0 0
313 53 1 16.544471810819832 2.550385887953222 24.59990257837519 0 0 0
8230 55 1 12.48390496238433 11.129919043816924 32.29676732560036 0 0 0
8218 55 1 3.782297526483363 10.924647474808037 19.687416560493915 0 0 0
9050 17 1 8.90037691143291 20.606128614289947 26.93762870604941 0 0 0
9496 63 1 2.8357029050610643 24.693266540500407 17.357176769615542 0 0 0
999 8 1 17.52777433824592 10.759981761212488 25.786457928127874 0 0 0
3484 25 1 16.248943332538563 8.657403401867414 17.608092171304964 0 0 0
1433 9 1 5.892933853897302 13.249479495044165 14.913002862184614 0 0 0
1735 13 1 6.604312421596989 18.405532584058925 15.872458432514586 0 0 0
383 52 1 9.695624193234984 5.324907775326599 20.60794170323158 0 0 0
384 52 1 9.918190611711765 4.6665822286147325 21.921368203092772 0 0 0
385 52 1 11.171990299713887 5.1900352258348414 22.637029790241684 0 0 0
386 52 1 11.372087128415625 4.340424106911225 23.846363546950855 0 0 0
387 52 1 12.509047247516085 4.911851025352408 24.662989280547936 0 0 0
388 52 1 12.806551118562911 4.219490743979181 26.022106501499742 0 0 0
389 52 1 13.926108741984661 4.8675068010506655 26.878082633562833 0 0 0
390 52 1 14.22460157181344 4.39605827386115 28.342492963549095 0 0 0
391 52 1 15.365524360117972 5.136374523988 29.068235728095818 0 0 0
392 52 1 15.689219158071511 4.514597900399675 30.41190182637879 0 0 0
7973 33 1 3.272550508337916 7.257911167969699 18.264992978846497 0 0 0
7233 58 1 1.484686200003671 0.7420550796058684 23.200760708754537 0 0 0
2821 37 1 17.5588475726325 4.3132917809916815 19.8029937065984 0 0 0
9494 63 1 1.3298086682396033 24.68796240664826 15.24850179044431 0 0 0
8828 58 1 3.388579833976757 18.26169945714624 24.60693465896763 0 0 0
9502 63 1 7.2917920830609555 24.413542554300538 23.53772512355599 0 0 0
8600 12 1 3.0065915044030347 15.340971223097638 17.09967258435737 0 0 0
8603 12 1 4.7676046947179005 16.30874404211858 20.56240187086974 0 0 0
2036 15 1 8.771379489863472 20.078369691664484 12.957839946052548 0 0 1
458 52 1 6.653266780813231 5.427076695912879 16.420350909465434 0 0 0
459 52 1 6.933069768471934 5.159917981418855 17.90987252250527 0 0 0
460 52 1 8.360367297283776 5.405239761093267 18.376736670033203 0 0 0
461 52 1 8.52398014567359 4.842405123258249 19.777962643698814 0 0 0
541 55 1 10.097938909649976 7.427290344477294 14.005873413501568 0 0 0
542 55 1 10.308801238812517 7.00400087821083 15.484239400669747 0 0 0
543 55 1 11.51480878795391 7.581790300005928 16.078487960966903 0 0 0
544 55 1 11.567986400742537 6.956751503805934 17.502887856547876 0 0 0
545 55 1 12.741534923888494 7.375926326776917 18.37251555585713 0 0 0
546 55 1 12.873293994978933 6.592330910838309 19.616635806807693 0 0 0
547 55 1 14.064535367039749 7.066538185241843 20.43909220823216 0 0 0
548 55 1 14.383329842256666 6.28257118710257 21.711967031649294 0 0 0
549 55 1 15.40545928582802 7.0255367496763785 22.551094663442264 0 0 0
550 55 1 16.02553179309958 6.131420859617979 23.63712985187895 0 0 0
9506 63 1 9.986450750498852 24.17284983421251 27.724431858203303 0 0 0
1734 13 1 5.417341973325178 17.740551744279504 15.10613726451868 0 0 0
455 52 1 3.6770238335802423 4.852196634718634 14.001537959016282 0 0 0
8443 35 1 2.1903376250908293 13.450682300623882 23.705559967184456 0 0 0
2038 16 1 10.567327023728748 20.061499947224583 14.905799165239145 0 0 0
988 6 1 5.326237243083772 9.62991055813013 14.017907411253109 0 0 0
9279 61 1 4.881896436325472 22.698079048477428 27.062216645614747 0 0 0
8451 35 1 8.13077545556636 13.432561829566588 32.24319370017399 0 0 0
1823 16 1 16.72266115231772 20.45677390730904 24.52264339279329 0 0 0
766 6 1 6.903043922769881 9.44606616430977 15.941737380138255 0 0 0
767 6 1 7.032599959909715 9.281011137767797 17.465818659797797 0 0 0
768 6 1 8.410314196403805 9.326631048117186 18.061806423347157 0 0 0
769 6 1 8.418343490661945 9.34402532111465 19.599202604002258 0 0 0
770 6 1 9.787491414097218 9.339268270085093 20.279467278300643 0 0 0
771 6 1 9.916456764036235 9.345856028577442 21.795728794005804 0 0 0
772 6 1 11.251943727311554 9.288573124531446 22.460148915950217 0 0 0
773 6 1 11.270241345383898 9.25021308630277 24.006851954536963 0 0 0
774 6 1 12.685183193316503 8.942973774718036 24.472127485324734 0 0 0
775 6 1 12.932886601919995 8.91847417291273 26.01038902980257 0 0 0
776 6 1 14.423336854848376 8.7737115020244 26.409459524133744 0 0 0
777 6 1 14.464281919447087 8.965903291668514 27.979363738393 0 0 0
4087 27 1 17.772023763156863 15.996853927655385 11.938024001384862 0 0 1
7452 61 1 2.2465928581991017 2.649066073885057 18.33609847516903 0 0 0
7970 33 1 0.7055862309529868 6.902246565002638 15.506811247202403 1 0 0
8450 35 1 7.736796160071083 13.927741384576809 30.879345558378834 0 0 0
4312 28 1 14.11985105982448 17.948257358818314 13.189783558802468 0 0 1
9508 63 1 11.558162758869994 24.227067221932163 29.69823986099082 0 0 0
3707 22 1 17.59719232687336 11.850058368830206 12.133958161251433 0 0 1
764 55 1 8.69259726010965 7.161157611218615 13.539858777008442 0 0 0
1817 23 1 3.9038448209972683 18.647390880101852 11.706974015968465 0 0 1
7684 6 1 1.8973550823794623 5.120099280597527 22.962949132468573 0 0 0
989 8 1 10.503272051695978 11.195257026876414 15.402555403657878 0 0 0
990 8 1 11.38202971720205 11.845901571707092 16.44432933827244 0 0 0
991 8 1 12.022313798362875 10.84737593978322 17.37320964427652 0 0 0
992 8 1 12.928981486423119 11.690761020158133 18.24989919955697 0 0 0
2258 59 1 6.153075349497604 22.409683227686568 15.680829968778156 0 0 1
995 8 1 14.7505626109791 10.953343502377871 21.656067654459775 0 0 0
16 2 1 16.13253173492322 26.388474834152643 29.86875383492612 0 -1 0
9275 61 1 1.8485687540084368 22.906332782959005 22.864853105007803 0 0 0
4092 29 1 17.023944884083175 18.029013256319136 17.49369500732219 0 0 0
7237 58 1 4.532722514220801 0.4815669032773322 27.293913829097463 0 0 0
2819 37 1 16.134556128093823 4.38593925015403 17.733000374435925 0 0 0
9049 17 1 8.72822413302892 20.100387449945266 25.561102739258068 0 0 0
9280 61 1 5.634851497095666 21.874015276158314 28.067702925092775 0 0 0
4768 35 1 17.09827834005457 24.735989461568998 12.411072706908548 0 0 0
3483 25 1 16.060253700872106 9.25320254104954 16.259806774793148 0 0 0
7451 61 1 1.8429223425194352 3.0984891544870887 16.92247438269937 1 0 0
1211 8 1 8.878622189139167 11.337295592984017 13.531463945134185 0 0 0
1212 8 1 9.963442572352413 12.080551096914121 14.27656904836919 0 0 0
1213 9 1 7.919765446111848 13.580752365640794 19.58839933572951 0 0 0
1214 9 1 9.12657614939244 14.139690249359193 20.364709505547367 0 0 0
1215 9 1 9.341990039969902 13.448005697045 21.719476712459127 0 0 0
1216 9 1 10.822849073945635 13.695950870102774 22.28128406198015 0 0 0
1217 9 1 10.993631129597716 12.986722311570578 23.620654634971423 0 0 0
1218 9 1 12.32155665900941 13.417448904404429 24.251730715951247 0 0 0
1219 9 1 12.43664845624947 12.802654752607118 25.629669995580024 0 0 0
1220 9 1 13.781783445738538 13.268563477593258 26.220604340209434 0 0 0
1221 9 1 13.992942249952744 12.77395396967896 27.649557339958942 0 0 0
1222 9 1 14.97700761734091 13.590639077206411 28.452492275365408 0 0 0
1223 9 1 15.43368835423479 12.736684229053619 29.614355012721646 0 0 0
7075 48 1 2.3518044092590578 24.276611759607114 29.51942846062395 1 0 0
1656 12 1 11.644069744851945 15.480906256782713 17.485220720449345 0 0 0
1825 16 1 18.22591889503296 20.513725802252196 26.589142027681 0 0 0
8601 12 1 3.315917513084217 16.082298492787128 18.39414091351593 0 0 0
2493 18 1 14.697587285806565 26.42832593088788 15.636341781095311 0 -1 0
779 6 1 16.062360075962708 9.001193842782838 29.981330167704087 0 0 0
765 6 1 5.428426522003451 9.305029135281131 15.486961279438425 0 0 0
2255 59 1 4.0248143926792865 23.050471694708296 12.397113289826745 1 0 1
997 8 1 16.189924299917216 10.87924037742041 23.706726729441748 0 0 0
1434 9 1 6.585342698085043 14.022961982582045 16.025510924865227 0 0 0
1435 9 1 6.910708188379246 13.181734398491201 17.27190284318398 0 0 0
1436 9 1 7.904467351617699 14.047015968669479 18.17161335908255 0 0 0
1437 12 1 15.494360980474223 16.05024153969745 22.50349469826817 0 0 0
1438 12 1 15.84143266699061 15.338138107923523 23.831365265605292 0 0 0
1439 12 1 16.7931226828997 16.128713910449136 24.664805110666308 0 0 0
9509 63 1 11.751593828152407 24.598201960312565 31.20998797070765 0 0 0
4088 27 1 17.791848984402776 15.519080351820715 13.396067535975396 0 0 1
3786 39 1 13.398843285938343 13.299744892771347 13.297807147088132 0 0 0
3479 24 1 13.113658179549574 9.420249803408675 12.162339640411528 0 0 1
8613 12 1 11.917513458836991 16.017877280547108 30.873249434859847 0 0 0
2814 37 1 12.881111923068982 4.5409892573313195 12.23787427229551 0 0 0
1210 8 1 8.781214638982862 11.923803847253359 12.081774995853301 0 0 0
9055 17 1 12.889124517906211 19.859941009646437 31.956181374832607 0 0 0
1432 9 1 5.132136776795011 14.193042321958323 13.939546887012796 0 0 0
304 53 1 10.040894842003086 2.371780318363044 15.093348793561852 0 0 0
8216 55 1 2.2361888872764633 11.149882283202773 17.787915622710546 0 0 0
1657 12 1 12.78005285972394 16.099724479753885 18.275543347309533 0 0 0
1658 12 1 12.9359986376213 15.460375945762886 19.649517565490292 0 0 0
1659 12 1 14.240986409707753 15.925991940110007 20.307985333725263 0 0 0
1660 12 1 14.360660832221708 15.418663486049834 21.752124751105647 0 0 0
1661 13 1 9.754339810998914 17.42451418543675 21.31014346217455 0 0 0
1662 13 1 10.596478792874354 18.328985944713637 22.27341277120526 0 0 0
1663 13 1 11.187938451308804 17.56709934246716 23.47007185031078 0 0 0
1664 13 1 12.074671830850738 18.310331678228913 24.43166213655119 0 0 0
1665 13 1 12.525233542395295 17.46143029086725 25.6440071300789 0 0 0
1666 13 1 13.515575772316483 18.161082578003096 26.617291838740293 0 0 0
1667 13 1 13.82000130370385 17.519386733740674 28.006339407757842 0 0 0
1668 13 1 15.21557472558891 17.889992646398003 28.563211188360466 0 0 0
1669 13 1 15.643212998724527 17.387090033630347 29.93791911455945 0 0 0
1670 13 1 17.06483926044152 17.762246912166905 30.4908911103767 0 0 0
1826 16 1 18.670639522040542 19.763079923353203 27.837195739411428 0 0 0
1651 11 1 8.044976759125591 16.379009030604596 12.070445898963982 0 0 1
2656 20 1 16.907035618677874 2.4429928157647 12.44627299246972 0 0 0
4540 31 1 16.486359619414284 22.33207227962828 18.846047910627046 0 0 0
1654 11 1 10.238511476247119 15.678275206722656 15.447927471676348 0 0 1
9048 17 1 7.3643682218889275 20.372266833791784 25.03647246123186 0 0 0
2256 59 1 4.79858110541615 22.34702482537502 13.524173529846593 0 0 1
3481 24 1 14.532623397598753 9.328872482888189 14.24146257178787 0 0 1
4769 35 1 18.18984328879673 23.975140208662754 13.144088660194653 0 0 0
1736 13 1 7.005373521016446 17.572237863101975 17.065756751048674 0 0 0
1737 13 1 7.981126111780242 18.24201425173131 17.96836192082037 0 0 0
1738 13 1 8.315262565788533 17.598531269608735 19.24483072065817 0 0 0
1739 13 1 9.529959647115941 18.07549014574685 19.967387423078314 0 0 0
1819 16 1 13.377565769735837 20.632216591461994 20.744593805075098 0 0 0
1820 16 1 13.967212631867055 19.860428096529148 21.883497723353905 0 0 0
1821 16 1 15.192516937184095 20.503841200030966 22.520178720401585 0 0 0
1822 16 1 15.480509221834307 19.840580900905127 23.8566253889367 0 0 0
1653 11 1 9.887486430757678 16.221641314717946 14.022931847389376 0 0 1
4093 29 1 17.05964590415023 18.286068720661834 18.98659659608569 0 0 0
4094 29 1 18.427928660818893 17.851188843937486 19.573678582228418 0 0 0
1431 9 1 4.3853874390930425 13.305973627914293 12.93730371026818 0 0 0
7073 48 1 1.0348718559705892 24.383488048769888 27.464430703873262 1 0 0
998 8 1 16.901039192113178 11.668593307392305 24.7344865921906 0 0 0
9276 61 1 2.5953731493427648 21.99147285473998 23.869896326444145 0 0 0
2817 37 1 14.492855028301049 4.510511370966882 15.745586619770869 0 0 0
9501 63 1 6.102008144886067 24.935749602037482 22.88555313528164 0 0 0
7683 6 1 0.8502328630931406 4.400377713819733 22.13040485482191 0 0 0
1818 23 1 4.135176797887604 17.83634683423294 12.94925190688346 0 0 1
2040 16 1 12.050612784960556 20.199533929121667 17.11577121224278 0 0 0
2041 16 1 11.98274153271594 20.617956283047686 18.586155868584786 0 0 0
2042 16 1 12.873468630888407 19.841130440772336 19.55145089111052 0 0 0
2043 17 1 12.843689582008208 22.75881900814205 25.032051532750046 0 0 0
2044 17 1 13.29556249237564 21.9184071567798 26.24881061680427 0 0 0
2045 17 1 14.310761926059605 22.56292487123176 27.118445115309854 0 0 0
2046 17 1 14.942653609729762 21.718993247759894 28.277678406422105 0 0 0
2047 17 1 15.786987966341899 22.54922211877139 29.184832527274672 0 0 0
2048 17 1 16.15734680514125 21.958744532289117 30.542736021905817 0 0 0
2049 17 1 17.14369924378595 22.705649760715826 31.397829865098974 0 0 0
8213 55 1 0.6140665382354372 11.678443561996152 14.168629887218732 1 0 0
8825 58 1 1.187885749605369 17.308746888020263 21.51398163063643 1 0 0
7232 58 1 1.326526032455127 0.3697048442543837 21.67196862756546 0 0 0
9507 63 1 10.208399210879218 24.620519068085095 29.165231246293082 0 0 0
9284 61 1 8.511883502077549 22.067189641023628 32.283872269775685 0 0 0
8614 12 1 12.820667357116958 15.19528720673503 31.74028391063465 0 0 0
315 53 1 18.052662911638656 2.6321130515873854 26.66641928575518 0 0 0
1430 9 1 3.652202485674822 14.130502709993872 11.92290183833973 0 0 0
3482 24 1 15.157036961415889 8.449415959882874 15.287620750417748 0 0 1
7693 6 1 8.497185813764455 4.135528745442161 32.39562360748455 0 0 0
2261 17 1 8.240315037205647 23.177695301005237 18.79601582949245 0 0 0
2262 17 1 8.649488767284298 22.372220856279828 20.00434333726359 0 0 0
2263 17 1 9.60336861043817 23.06024862081746 21.00626244905651 0 0 0
2264 17 1 10.266210993905231 22.268396468407367 22.17850496178787 0 0 0
2265 17 1 11.38781301293356 22.948864973166415 22.981778054313445 0 0 0
2266 17 1 11.87481858490532 22.075478458158194 24.08469179822706 0 0 0
2267 19 1 10.550725209690466 25.288516825256945 16.476151981080523 0 0 0
2268 19 1 11.7543804052018 24.69046171387724 17.225649980856744 0 0 0
2269 19 1 11.855547257067947 25.04880606016338 18.710754614589327 0 0 0
2270 19 1 13.086620319049345 24.645763213939087 19.437720484899508 0 0 0
2271 19 1 13.283816482658407 24.887508996130748 20.933598533982334 0 0 0
2272 19 1 14.646194187154233 24.414297189021003 21.39970265521861 0 0 0
2273 19 1 14.968424005358166 24.87574355790704 22.81123507233274 0 0 0
2274 19 1 16.176160360409128 24.20223372774882 23.453339621890557 0 0 0
2275 19 1 16.57480481867224 24.85286129167562 24.809296303022364 0 0 0
2276 19 1 17.915002181217048 24.340536985337444 25.45572848421112 0 0 0
393 52 1 16.643667407252053 5.304428267686698 31.24959383509585 0 0 0
3045 25 1 17.46277036697769 7.336096111534426 12.182061375603192 0 0 0
8449 35 1 6.6229070995807495 13.230010622052829 30.143454450805272 0 0 0
7969 33 1 0.517742777008784 7.427079082987209 14.056131782269222 1 0 0
2657 20 1 17.97357673964272 1.7428908010632844 13.344054589017183 0 0 0
9273 61 1 0.3360237214056765 23.123545330130767 20.826792807198004 1 0 0
2658 20 1 18.315444763761377 2.5063606918868597 14.633090687831379 0 0 0
3787 39 1 14.237377655709356 13.97805482945175 14.375474007399411 0 0 0
6007 44 1 1.8435166792558038 11.226323202248716 30.021613409840988 0 0 0
2492 18 1 13.992259563396651 0.603007182663084 14.629630322098224 0 0 0
2815 37 1 12.996953814426508 4.61305295062642 13.756373966455573 0 0 0
2494 18 1 15.472110937728177 0.6156831974974984 16.61393238957925 0 0 0
2495 18 1 16.217625480627213 26.321820057222265 17.52897390537236 0 -1 0
2496 18 1 16.968772892124456 0.37308581494032367 18.604281390772872 0 0 0
6010 44 1 4.592063653681727 11.377335284817825 32.690611387646314 0 0 0
1224 9 1 16.41343178917966 13.566987696396577 30.374151364761364 0 0 0
9499 63 1 4.65068509935631 25.046749826430524 20.73973888063658 0 0 0
9510 63 1 13.222624117192174 24.634248925695825 31.761688312462883 0 0 0
763 55 1 8.528176233920869 7.131007826360686 12.064366685251017 0 0 0
781 6 1 17.517658097949152 9.144344783915136 32.00726648507864 0 0 0
993 8 1 13.431732617759465 10.995850898687873 19.547090210022652 0 0 0
8597 12 1 0.6352915599786437 16.321635101638226 14.257949171704274 1 0 0
1671 13 1 17.39420263165805 17.329053769824046 31.909130993425038 0 0 0
2488 19 1 8.621216131669982 24.721075200619918 13.249738857474751 0 0 0
2816 37 1 14.37687760299628 4.7663735151811455 14.258281631909236 0 0 0
2498 18 1 18.16023202000518 0.11477902534859029 20.81277643924029 0 0 0
17 2 1 16.56323458436642 0.37541183303716774 31.163004520971075 0 0 0
9039 14 1 1.3314025554740991 20.108226523400564 15.191884771928198 1 0 1
3708 22 1 17.99414354828829 10.99222626572148 13.35646560079923 0 0 1
7691 6 1 6.81686751019351 4.084116786006866 30.53822056946368 0 0 0
5232 36 1 1.4188598382532749 2.708917808108069 28.774007463664137 1 0 0
2497 18 1 17.68204676449997 26.125457464897096 19.55644400327717 0 -1 0
539 4 1 2.292001548416177 4.634199346719183 11.764885776482146 0 0 1
8215 55 1 2.0589628188830424 11.716892164739082 16.3605689759086 1 0 0
2569 18 1 12.563792200938781 0.6471263258374306 12.428358742820944 0 0 0
15 2 1 15.040014370998907 0.34325377151480757 29.047367522724418 0 0 0
9043 17 1 4.117245550122543 19.89839235820414 19.422558345722603 1 0 0
2818 37 1 15.944591083385959 4.712085133168776 16.24715974154034 0 0 0
2820 37 1 17.47027120771894 4.779914939258474 18.37226121775651 0 0 0
6320 64 1 3.3885379891802407 15.711295775720865 30.451273247361083 0 0 0
2257 59 1 5.303122379277847 23.14347263466529 14.72242297673099 0 0 1
554 55 1 18.960873089694655 6.142986652397716 27.930324676950363 0 0 0
8598 12 1 1.4905449585258037 15.40851199004392 15.061057111936295 0 0 0
9051 17 1 10.134933272159547 20.116946547615196 27.656639595808496 0 0 0
8602 12 1 4.168314242369206 15.347802108457614 19.479368293206182 0 0 0
2489 19 1 9.10096068317997 25.431872791972893 14.476629583618465 0 0 0
1655 11 1 11.640329948230905 15.995299469418576 16.03777971343566 0 0 1
8832 58 1 5.949423095560588 18.54734284861211 28.897355108850608 0 0 0
7972 33 1 1.9605182382863262 6.767993453627393 17.6443222120889 0 0 0
9277 61 1 3.4358773024779254 22.830333319881937 24.877502395693604 0 0 0
3710 39 1 15.74605094505072 13.857015923117322 16.375668973701643 0 0 0
4759 10 1 13.725577614060057 22.2663448076221 12.974340307812389 0 0 1
2037 15 1 9.310260438076835 20.705569373937486 14.274551126283631 0 0 1
6008 44 1 3.0927548129169793 11.675194514102344 30.79705671099299 0 0 0
314 53 1 17.61517902033193 1.8466695432389875 25.49703573073506 0 0 0
456 52 1 4.990803937583562 5.398491706944631 14.480012295874555 0 0 0
3262 25 1 17.725340113134088 8.340556905856994 19.706207042410632 0 0 0
553 55 1 18.458129947211255 6.921560213922819 26.698436577501205 0 0 0
2491 18 1 13.307510274932564 26.559581743063475 13.47199641079745 0 -1 0
3788 39 1 14.945032702528469 13.016131826094938 15.339793755007905 0 0 0
8835 58 1 8.40859640134402 17.551239405894503 31.785531702819757 0 0 0
3712 39 1 17.208444165552525 13.783474418489439 18.521999966249098 0 0 0
7076 48 1 2.7116853753228267 24.962528991171254 30.842813120266175 1 0 0
4761 31 1 14.783593176664677 22.068788551865318 15.257852339960607 0 0 0
223 2 1 3.3283936156821423 0.9033069446127682 12.402100177822796 0 0 0
8599 12 1 1.9369423828521684 16.132203367601605 16.356940439158308 0 0 0
6322 64 1 4.8964929500593115 15.736667591252749 32.466933001966595 0 0 0
3713 39 1 17.918129820626433 12.850548534759941 19.555801701261174 0 0 0
8052 54 1 1.3639356800789206 9.312688119676181 22.719778306001146 1 0 0
7692 6 1 7.7927091888000515 4.889416276510123 31.345833288825634 0 0 0
7974 33 1 3.378132483761538 7.159317776695437 19.797162979774605 0 0 0
4313 29 1 14.379270984403886 18.41518659948573 14.638589024959806 0 0 0
4314 29 1 15.694254191919892 17.97248953415298 15.32024011189945 0 0 0
8053 54 1 1.6646129549236734 8.80357739949661 24.122640266209743 1 0 0
8827 58 1 2.407940613302235 17.50094860006308 23.69700254154077 0 0 0
8604 12 1 5.2564386337850495 15.495141213236378 21.741333565222384 0 0 0
552 55 1 17.370738422594364 6.248009515772387 25.871813187146174 0 0 0
7453 61 1 3.4967672270331955 3.297008781320106 18.971282988225283 0 0 0
9283 61 1 7.829096205408619 22.9036669239075 31.172255038011205 0 0 0
7236 58 1 4.098159068791189 26.62919647286541 25.917359611158233 0 -1 0
7450 61 1 0.6931246295838414 2.362172801140845 16.237118682090998 1 0 0
8058 54 1 5.923811918202473 9.497848777560954 28.80099963110623 0 0 0
8445 35 1 3.683822407553459 13.500600025023253 25.867964800776093 0 0 0
14 2 1 14.41120623021121 26.046073424027316 28.075643118035394 0 -1 0
2039 16 1 10.644428686339682 20.41758783031752 16.40228933561447 0 0 0
8610 12 1 10.038792996227324 15.366136920520695 27.574067600123946 0 0 0
4762 31 1 14.969809961412343 22.476790584328022 16.713820952054288 0 0 0
4763 31 1 16.362202606861302 22.26924500911494 17.29886874707268 0 0 0
8830 58 1 4.516739697816243 18.49135926019471 26.81634188650613 0 0 0
8612 12 1 11.466353420498482 15.275729200015139 29.641170297125832 0 0 0
7685 6 1 2.367648436168123 4.260975265923119 24.133132583605367 0 0 0
8829 58 1 3.7825880482110854 17.539775431203985 25.87301422023524 0 0 0
8831 58 1 5.253126211058295 17.699999464656052 27.885664610847627 0 0 0
3037 37 1 11.421191836156558 4.473656560705043 11.77957237874356 0 0 0
8057 54 1 4.926899215411509 8.763254813920527 27.873764340932983 0 0 0
6321 64 1 3.7433232213954204 15.072947288952237 31.7413348333581 0 0 0
1652 11 1 8.586669765368551 15.754262683909719 13.336325294304958 0 0 1
8055 54 1 3.341017221555598 8.83209594768731 25.973894588991488 1 0 0
13 2 1 13.41922914288938 0.18989871081318166 27.30493400478759 0 0 0
5623 42 1 2.891928801541617 6.554317347214009 30.265981771795037 0 0 0
3485 25 1 17.36874733539328 9.160786417022377 18.501959778519005 0 0 0
7235 58 1 3.069940904207951 0.7568889275902354 25.190531609754565 0 0 0
4315 29 1 15.759278915732114 18.42484307262126 16.80448542567045 0 0 0
7976 33 1 4.938027622157368 7.015260621117299 21.910118470958523 0 0 0
8826 58 1 2.017156028751422 18.241200203456405 22.40167229988802 0 0 0
9274 61 1 1.0373642826462404 22.173375698214436 21.76841109842519 0 0 0
8609 12 1 9.13780808383332 16.215411002165023 26.738197901804973 0 0 0
994 8 1 14.310447723663842 11.790491546749898 20.505237550497654 0 0 0
1824 16 1 17.113140307690994 19.802864322563416 25.79659376573505 0 0 0
4541 31 1 17.96247861857433 22.15597009598978 19.248236475460764 0 0 0
9041 14 1 2.7435135616961888 19.921338035485412 17.262411565501694 1 0 1
8605 12 1 6.1823097419321575 16.25614271599358 22.601356266358863 0 0 0
780 6 1 17.451113757790672 8.878366067849077 30.56138509654208 0 0 0
6693 48 1 3.7763310240145964 19.83386454603005 31.51788141921067 1 0 0
7074 48 1 1.384923622559485 25.100025939297275 28.736237114056564 1 0 0
5235 36 1 3.0256825706029424 2.2904365484290126 32.28891798795625 0 0 0
6319 64 1 2.073093941420916 15.138729328037561 29.89670850311514 0 0 0
8444 35 1 3.4583644030503544 14.002003480091517 24.431547897308292 0 0 0
5233 36 1 1.539450663826 2.2435077337533795 30.226015994920427 0 0 0
8446 35 1 5.013197979181908 13.829986172138494 26.563232216369208 0 0 0
9503 63 1 7.518643634242364 25.16649798894183 24.879231776221715 0 0 0
6692 48 1 3.052404165347603 20.635766463283286 30.466776756452905 1 0 0
4758 10 1 12.546031247534629 22.788057776501628 12.170309197163466 0 0 1
9500 63 1 5.843042543269807 24.354139173995996 21.456958777499615 0 0 0
9044 17 1 4.557828414280383 20.580465396663854 20.66279280930504 1 0 0
2277 19 1 18.07395084867148 24.92415220789823 26.881910387694468 0 0 0
381 53 1 8.444519815811097 2.482155740751656 13.099531046736972 0 0 0
6690 48 1 1.5093966654364857 20.667399745663797 28.415108412212096 1 0 0
7238 58 1 5.60040660837319 26.35502347556026 28.038264627102322 0 -1 0
7239 58 1 5.948805715401252 0.3037529417131976 29.392173680931887 0 0 0
7240 58 1 7.249197636265183 26.47692524114081 30.058131173998635 0 -1 0
5622 42 1 1.996103529010647 7.284777426585412 29.231623669314956 0 0 0
7234 58 1 2.7870629464688363 0.24400735576132243 23.792111778647147 0 0 0
7975 33 1 4.762312333021897 7.355149768836149 20.470894367226194 0 0 0
9505 63 1 8.735957851855503 24.789537628426718 27.119507428627205 0 0 0
9054 17 1 11.82812415588657 20.5651287393705 31.14392148130349 0 0 0
7971 33 1 1.9081787594760011 7.373465341683551 16.272669130907442 1 0 0
7454 61 1 4.035755588087957 2.5549916943617204 20.195381428618482 0 0 0
7455 61 1 5.108232298817489 3.3514809932572884 20.99481959675542 0 0 0
7456 61 1 5.329071218189874 2.7752614336249977 22.406696850558195 0 0 0
7457 61 1 6.567699916919339 3.242650916604919 23.13872965026506 0 0 0
7458 61 1 6.609168126106627 2.6602872552292065 24.583822087779936 0 0 0
7459 61 1 7.903291811727256 3.2337925871159463 25.226428802960726 0 0 0
7460 61 1 8.218513466633006 2.506267324052819 26.542513452986654 0 0 0
7461 61 1 9.44723606206715 2.907215804862609 27.32145966911271 0 0 0
7462 61 1 10.009289210359073 2.117436767931548 28.516408120300078 0 0 0
7463 61 1 11.206973888078616 2.699836615301347 29.30415300992527 0 0 0
7464 61 1 11.503290246834025 1.9734171240468275 30.585004176674868 0 0 0
2050 17 1 17.650537211290946 21.863251700712855 32.56284952591002 0 0 0
3046 25 1 17.776339457091723 6.580846581977171 13.50068368526742 0 0 0
8606 12 1 6.881000676652348 15.446106921855367 23.661801433063303 0 0 0
8060 54 1 7.284951817285711 9.324951043654453 30.969799720641134 0 0 0
9042 17 1 3.1852829624139396 20.707590446450315 18.482396006227283 1 0 0
8442 35 1 1.98967104039322 13.738484192952438 22.22652756327089 0 0 0
8059 54 1 6.626275065926166 8.59773443238824 29.818034996633173 0 0 0
8217 55 1 3.482930881144322 11.589976768057648 18.357250540423475 0 0 0
8834 58 1 7.524664890954439 18.481522880527162 30.980269410381432 0 0 0
7465 61 1 12.440200200005135 2.784074292474187 31.49645770775562 0 0 0
9046 17 1 6.137324973245197 20.611057439398156 22.739750904917763 0 0 0
18 2 1 17.736896534546432 26.36920366793825 31.93311414770786 0 -1 0
540 4 1 3.442735615380836 5.3116995340185715 12.53631602954719 0 0 1
7687 6 1 3.818666665862926 4.3283324842221536 26.35646328075186 0 0 0
7688 6 1 4.815176226049734 4.90409912451124 27.260605361747686 0 0 0
7689 6 1 5.158179950919953 4.132359866490508 28.537748868033862 0 0 0
7690 6 1 6.072712647684556 4.878406040609308 29.47809500477426 0 0 0
7241 58 1 7.5156882231088735 0.5488360058378056 31.332821611615355 0 0 0
9504 63 1 8.627508693705979 24.411969387228012 25.648225977743905 0 0 0
3867 5 1 12.766999866382374 14.20902093400923 12.206133479734532 0 0 1
9053 17 1 11.426807650160244 19.749267408216767 29.86814659094109 0 0 0
551 55 1 17.00310581284477 6.877257354776379 24.50115183207133 0 0 0
4760 10 1 13.615712896430095 22.621099939123127 14.442787524841519 0 0 1
3711 39 1 16.400945312735107 13.022872783756537 17.470067068726443 0 0 0
7977 33 1 6.376646523047144 7.269810313638367 22.313462734455165 0 0 0
7978 33 1 6.501449052376103 7.092358248901317 23.802318206120304 0 0 0