LAMMPS data file via write_data, version 29 Oct 2020, timestep = 32000000

10752 atoms
2 atom types
10752 bonds
3 bond types
10752 angles
3 angle types
10752 dihedrals
3 dihedral types

-1.4019591925125496e-01 3.1008115919238300e+01 xlo xhi
-1.2113307625790526e-01 2.6791853076229280e+01 ylo yhi
 2.6541138718980477e+01 2.5645822128027129e+02 zlo zhi

Masses

1 14
2 15

Pair Coeffs # lj/cut/omp

1 0.0914 3.95
2 0.1947 3.75

Bond Coeffs # harmonic/omp

1 449.5 1.53
2 449.5 1.53
3 449.5 1.53

Angle Coeffs # harmonic/omp

1 62.0967 114
2 62.0967 114
3 62.0967 114

Dihedral Coeffs # opls/omp

1 1.411 -0.271 3.145 0
2 1.411 -0.271 3.145 0
3 1.411 -0.271 3.145 0

Atoms # molecular

1            1            1      9.85682      20.1997      27.9126
2            1            1      9.50717      21.4002      28.7791
3            1            1        10.69       21.635      29.7997
4            1            1      10.0516      22.4238      30.9479
5            1            1      11.2279       22.918      31.8163
6            1            1      10.7271      23.4547      33.1795
7            1            1      11.7875      23.9458      34.0752
8            1            1      11.3386      24.8116      35.2187
9            1            1      10.3106      24.1795      36.1439
10            1            1      9.76257      25.2471      37.0841
11            1            1      8.73141      24.5892      37.9578
12            1            1      8.17658      25.5318      38.9679
13            1            1      7.21536      24.7642      39.7544
14            1            1      6.65393      25.5226      40.9456
15            1            1      5.84786      24.7035      41.9552
16            1            1      4.97757      25.6151      42.7817
17            1            1      4.23467      24.8347      43.8811
18            1            1      5.39437      24.2726      44.7476
19            1            1      4.80667      23.4085        45.87
20            1            1      5.89632      22.9286      46.7308
21            1            1      5.34976      21.8921      47.7278
22            1            1      6.40878      21.5939      48.7671
23            1            1      5.92893      20.4957      49.7625
24            1            1       6.8529      20.1206      50.8712
25            1            1      6.94285      21.3356      51.8123
26            1            1      7.75195      21.0095      53.0476
27            1            1       7.8479      22.3377      53.8225
28            1            1      8.93289      22.2092      54.8577
29            1            1       8.7671      23.1921      55.9454
30            1            1      10.1631      23.3836      56.6043
31            1            1      10.1495       24.446      57.6732
32            1            1      11.4509      24.3442      58.4727
33            1            1      11.5316      25.3349      59.5692
34            1            1      10.4109      25.0565      60.5506
35            1            1      10.2904      26.0702      61.6297
36            1            1      9.29621      25.7352      62.6992
37            1            1      9.12411      26.7565      63.8304
38            1            1       7.9687      26.5734      64.7005
39            1            1      7.94071     0.821887      65.6649
40            1            1      6.84598     0.486446      66.6415
41            1            1      6.50511      1.51455      67.6137
42            1            1      5.45074     0.832641      68.4625
43            1            1      5.09255      1.85485      69.5993
44            1            1      4.20255      1.26253      70.6635
45            1            1      4.02892      2.24038      71.7382
46            1            1      3.02288      1.74885      72.7919
47            1            1      2.76924      2.87162       73.792
48            1            1      3.85368      3.07395      74.8983
49            1            1      3.60674      4.21752      75.9263
50            1            1      4.75685      4.28705      76.9226
51            1            1      4.66536      5.42788      77.8782
52            1            1      5.65124      5.40007      79.0658
53            1            1      5.28791      6.53039      79.9992
54            1            1      6.23387      6.55718      81.1537
55            1            1      6.02704       7.8191      82.0463
56            1            1      7.07621      8.15455      83.0893
57            1            1      6.63973        9.314      83.9025
58            1            1      7.60832      9.31599      85.0396
59            1            1      7.49451      8.06476      85.8079
60            1            1       8.4941      8.06238      86.9537
61            1            1      8.08473      6.90875      87.8084
62            1            1      9.08613      6.69034      88.9162
63            1            1      8.81326      5.63179      89.9259
64            1            1      10.0304       5.2626      90.7722
65            1            1      9.56646      4.61526      92.0558
66            1            1      10.7611      4.08646      92.8395
67            1            1      10.1975      3.26806      93.9116
68            1            1      9.42047      4.16331      94.9083
69            1            1      8.73206      3.29603       95.997
70            1            1      7.78704      3.93571      96.9425
71            1            1      7.27463      2.99251      98.0018
72            1            1      6.42221       3.7951      99.0527
73             1             1       5.75386       2.96719       100.187
74             1             1       4.97248       3.86309       101.114
75             1             1       4.36359       3.00913       102.291
76             1             1       3.46392       3.86629        103.15
77             1             1        4.4327       4.41451       104.161
78             1             1       3.74846       5.30892       105.158
79             1             1       4.64366       5.83605       106.327
80             1             1       3.98803       6.63175       107.416
81             1             1       4.96692       7.14479        108.47
82             1             1       4.23661       7.98349       109.478
83             1             1       3.32524       7.21549       110.393
84             1             1       2.90079       8.15178       111.498
85             1             1       2.24763       7.17664       112.412
86             1             1        1.4659        7.9026       113.526
87             1             1      0.932837       7.01039       114.591
88             1             1    -0.0280098       7.73159       115.558
89             1             1       30.6492       6.90329       116.853
90             1             1      0.556095       6.65199       117.943
91             1             1       31.2112       5.63216       118.923
92             1             1        1.0484       5.45745       120.088
93             1             1      0.649249       4.36017       121.041
94             1             1       1.70496       4.20684       122.135
95             1             1       1.21583       3.11069       123.109
96             1             1       2.25891       2.68763        124.17
97             1             1       1.73562       1.68857       125.195
98             1             1       2.80553       1.25366       126.227
99             1             1       2.46408      0.256184       127.404
100             1             1        3.5322      0.231249       128.467
101             1             1       3.06748       25.9836       129.369
102             1             1       4.00398       25.5742       130.477
103             1             1       3.77343       24.3952       131.383
104             1             1       4.89478       24.3402       132.436
105             1             1       4.58091       25.3824       133.473
106             1             1       5.64633       25.7459        134.45
107             1             1       5.37453      0.173404       135.209
108             1             1       6.29664      0.323812       136.459
109             1             1       5.43879      0.169064       137.699
110             1             1       5.04672       1.41856       138.435
111             1             1        4.0579      0.955251       139.509
112             1             1       3.68967       2.00306       140.565
113             1             1       2.70108        1.4628       141.563
114             1             1       2.53835       2.43054       142.663
115             1             1       1.39588       2.10304       143.642
116             1             1       1.20603       3.17112        144.63
117             1             1      0.176896       2.81777       145.755
118             1             1     0.0670418       3.80542       146.935
119             1             1       30.0779        3.4898       147.823
120             1             1       30.0171       4.40523       149.025
121             1             1       28.9273       4.06775       149.972
122             1             1       28.5431       5.20184       150.946
123             1             1       27.3325       4.68869       151.743
124             1             1       27.3663       5.48855        153.02
125             1             1       26.2494        5.1499       153.993
126             1             1       26.0872       6.26338       155.027
127             1             1         24.88       6.14484       155.995
128             1             1       25.2662       5.32607       157.218
129             1             1       24.1924       5.15382       158.362
130             1             1       24.9002       4.27999       159.421
131             1             1         25.38       4.94345       160.724
132             1             1       26.4536       4.09954       161.401
133             1             1       26.9013       4.67973       162.756
134             1             1       27.9247       3.87836       163.499
135             1             1       28.3041       4.65877       164.775
136             1             1       29.2107       3.90642       165.741
137             1             1       29.6674       4.79719       166.953
138             1             1       30.6621       3.96455       167.735
139             1             1     0.0267912       4.81424       168.924
140             1             1        0.8984       3.99246       169.863
141             1             1       1.52119       4.83677       170.954
142             1             1       2.16309       3.96378       172.052
143             1             1       1.25038        3.2676       172.879
144             1             1       2.12357       2.47762       173.897
145             1             1       1.20538       1.85813       174.922
146             1             1       1.71562       1.12803       176.092
147             1             1      0.604719      0.572059       176.973
148             1             1       1.21829       26.5225       177.979
149             1             1      0.215262       26.0272        179.05
150             1             1      0.911167       25.4165       180.212
151             1             1       31.1731       24.5921        181.16
152             1             1       30.3249       25.3717       182.134
153             1             1       29.6768       24.7113       183.335
154             1             1       28.8655       25.7265       184.074
155             1             1        28.314       25.1636        185.36
156             1             1        27.582       26.0361       186.375
157             1             1       26.9435       25.2742       187.525
158             1             1       26.0068       26.0863       188.407
159             1             1       25.4512       25.3444       189.632
160             1             1       24.5111       26.1255       190.595
161             1             1       24.1343       25.2996       191.811
162             1             1       23.4095       26.1634       192.849
163             1             1       22.5459       25.3846       193.776
164             1             1       21.8585       26.1732       194.806
165             1             1       21.3542       25.2656       195.951
166             1             1       20.1697       25.7559       196.684
167             1             1       19.6391       24.8726       197.764
168             1             1       20.6491       24.5629       198.906
169             1             1       20.1155       23.4992       199.872
170             1             1       21.1678       23.3299       200.906
171             1             1       20.7452       22.4356       202.008
172             1             1       21.7104       22.3814       203.191
173             1             1       21.6964       21.2295       204.168
174             1             1       22.6365       21.5413       205.386
175             1             1       22.2042        22.681       206.261
176             1             1        23.296       22.8757       207.256
177             1             1        22.882       23.8087       208.393
178             1             1        23.933       24.3061       209.376
179             1             1       23.2466       25.1712       210.453
180             1             1       24.1795       25.6125        211.57
181             1             1       23.4152       26.3911       212.602
182             1             1       24.3649      0.127337       213.497
183             1             1       25.0985       26.0066       214.384
184             1             1       25.9967       26.7508        215.42
185             1             1       26.5395       25.8806       216.557
186             1             1       27.5074       26.6819       217.376
187             1             1       28.1157       26.0463       218.586
188             1             1       28.8181       27.0499       219.442
189             1             1       29.5918       26.2198       220.451
190             1             1        30.119      0.171535        221.57
191             1             1        29.144      0.637081        222.65
192             1             1        29.761       1.57108       223.606
193             1             1       28.7892       1.81776       224.687
194             1             1       29.2227       3.00263        225.65
195             1             1       28.1118       3.17685         226.7
196             1             1       28.4958       4.02502       227.845
197             1             1        27.475       4.33356       228.954
198             1             1       27.4381          3.22       230.004
199             1             1       28.6917       3.10336       230.844
200             1             1        28.322       2.20354       232.003
201             1             1       29.5696       1.97637       232.841
202             1             1       29.4219      0.840048       233.791
203             1             1       30.4395      0.884296        234.92
204             1             1       30.2332       26.5766       235.723
205             1             1     0.0419573       26.3393        236.86
206             1             1    -0.0660792      0.434586       237.983
207             1             1      0.983732      0.192705       239.059
208             1             1       1.29386       1.52879       239.824
209             1             1       2.52089       1.30386       240.754
210             1             1        2.0836      0.122714       241.602
211             1             1       2.99955    -0.0138826       242.801
212             1             1       2.78901        25.837       243.891
213             1             1       3.79829       25.9202       245.033
214             1             1       3.53539       24.9715       246.186
215             1             1       4.65864       24.9329       247.224
216             1             1       4.68652       23.6788       248.143
217             1             1       5.72787       23.8105        249.33
218             1             1       5.87686       22.6331       250.259
219             1             1        6.6575        22.811       251.501
220             1             1       6.72708       21.5709       252.462
221             1             1       7.61153       21.8822       253.643
222             1             1       7.85872       20.6278       254.472
223             1             1       8.86306       20.8916        255.61
224             1             1       9.00016       19.7696       26.7349
225             2             1       11.4912       23.1354       254.232
226             2             1       12.7701       22.9308       254.962
227             2             1        12.347       22.2095       256.243
228             2             1       13.4783       21.9205       27.2788
229             2             1       14.1499       23.1442       27.8879
230             2             1       13.5871       23.4347       29.2372
231             2             1       14.5464       24.1592       30.1987
232             2             1       13.9486       25.0255       31.3451
233             2             1       14.9742       25.3783       32.3573
234             2             1       14.4419       26.2015       33.4904
235             2             1       15.5301       26.5773       34.5261
236             2             1        14.978      0.544917       35.6445
237             2             1       13.9262      -0.16587       36.5145
238             2             1       13.2924      0.749271       37.5139
239             2             1       12.2631     0.0806351       38.3497
240             2             1       11.7346       1.03882       39.4109
241             2             1       11.1048      0.205692       40.4972
242             2             1       10.1652      0.952216        41.483
243             2             1       9.60448     0.0183902       42.5381
244             2             1       8.74934      0.637056        43.652
245             2             1       8.33398       26.5094       44.6418
246             2             1       9.38465       26.2755       45.6941
247             2             1       8.96835       25.1849       46.6648
248             2             1        9.9632       25.0019       47.8001
249             2             1       9.57248       24.1085       48.9307
250             2             1       10.6783       24.0271        50.043
251             2             1       10.3266       22.9766       51.1089
252             2             1       11.3952       23.0766       52.2155
253             2             1       11.6612       24.3306       53.0371
254             2             1        12.661       23.9361       54.1638
255             2             1       12.9291       25.2123       54.8964
256             2             1       13.7788       25.0081       56.1767
257             2             1        13.953       26.2725       56.9638
258             2             1       14.7638       26.1697       58.2626
259             2             1       14.6309      0.513978       59.1034
260             2             1       14.5659      0.511908       60.6293
261             2             1       14.6237       1.91914       61.2008
262             2             1       14.0882       1.98898       62.6151
263             2             1       12.8035       1.11593       62.8729
264             2             1       12.4027       1.29163       64.3125
265             2             1       12.1303       2.76643       64.5085
266             2             1        11.998       3.08055       66.0088
267             2             1       10.7503       2.58297       66.6202
268             2             1        10.603       3.34862       67.8956
269             2             1       9.22789       3.05532       68.5594
270             2             1       8.89727       4.11764       69.5741
271             2             1       8.08471       3.57028       70.6598
272             2             1          7.77       4.62137        71.709
273             2             1       6.72406       4.17169       72.7142
274             2             1       6.47387       5.15936       73.8307
275             2             1       7.65777       5.47733       74.6682
276             2             1       7.36793       6.65817       75.6334
277             2             1       8.49352       6.69877       76.6396
278             2             1       8.08636       7.74012       77.7078
279             2             1       9.27173        7.7824       78.6516
280             2             1       8.97171       8.77588       79.7902
281             2             1       10.1581       9.02739        80.615
282             2             1       9.87646       9.97499       81.7976
283             2             1       10.8906       10.1178        82.929
284             2             1       10.3699       11.1516       83.8676
285             2             1       11.5909       11.2112        84.835
286             2             1       11.2889       10.1154       85.8997
287             2             1       12.4406       9.96723       86.8947
288             2             1       12.0637       8.94997       87.9977
289             2             1        13.199       8.73557       88.9793
290             2             1       12.7544       7.81917       90.1743
291             2             1       13.7991        7.3203        91.133
292             2             1       13.3413       6.85774        92.474
293             2             1       14.4166       5.99307       93.2083
294             2             1       13.9421       5.19692       94.3961
295             2             1       13.2468       6.19997       95.2927
296             2             1       12.4775       5.46102         96.34
297             2             1       11.5259        6.2026       97.1989
298             2             1         10.81       5.35302       98.2503
299             2             1       10.3862       6.04655       99.5514
300             2             1       9.40516       5.23575       100.346
301             2             1       8.72508       6.16464         101.4
302             2             1        7.9961       5.36625       102.512
303             2             1       7.34133       6.17604       103.595
304             2             1       8.27833       6.69205       104.627
305             2             1       7.56515       7.60563       105.645
306             2             1        8.5495       8.12986       106.667
307             2             1       7.90237       8.87397       107.779
308             2             1       8.83125       9.61086       108.728
309             2             1       8.04107       10.4694       109.739
310             2             1       7.22236       9.61469       110.622
311             2             1       6.60171       10.3507       111.787
312             2             1       5.97737         9.282       112.615
313             2             1       5.10444       9.92714        113.69
314             2             1       4.76412       9.13493        114.98
315             2             1       3.54026       9.68737       115.727
316             2             1       3.12175        8.9263       116.926
317             2             1       4.25747       8.45072       117.852
318             2             1       3.64707       7.77257       119.088
319             2             1       4.82921       7.46485       120.057
320             2             1        4.4679       6.56925       121.134
321             2             1       5.56687       6.44162       122.162
322             2             1       5.16197       5.45784       123.295
323             2             1       6.14061       5.16317       124.386
324             2             1        5.7084       3.89213       125.075
325             2             1       6.55571       3.76771       126.328
326             2             1       6.31093       2.50073       127.147
327             2             1       7.14314        2.3948       128.367
328             2             1        6.9094       1.21656       129.163
329             2             1       7.56928       1.32284       130.529
330             2             1       7.69268      -0.03382       131.263
331             2             1       8.69906    -0.0381108       132.404
332             2             1       8.29374      0.905072       133.498
333             2             1       9.42962       1.10053       134.519
334             2             1       9.03451       2.05662       135.688
335             2             1       10.0377         2.152       136.791
336             2             1       9.74416       3.37156       137.664
337             2             1       8.35463       3.24189       138.346
338             2             1       8.34756       4.03427       139.628
339             2             1       7.22096        3.7518        140.63
340             2             1       7.25872       4.64968       141.777
341             2             1       6.07356       4.16238       142.568
342             2             1       5.90982        5.1753       143.688
343             2             1       4.73012        4.7947       144.565
344             2             1       4.64061       5.72354       145.727
345             2             1       3.49747       5.43201       146.654
346             2             1        3.2961       6.46602       147.677
347             2             1       2.30248       6.00482       148.731
348             2             1        2.0693        7.0554       149.822
349             2             1       1.01002       6.73553       150.869
350             2             1      0.819097       7.71898       152.008
351             2             1       30.8193       7.42562       152.922
352             2             1       30.4599       8.47927       154.007
353             2             1       29.5301       7.74075       154.967
354             2             1       29.1619       8.55851       156.175
355             2             1       29.1604       7.94452       157.485
356             2             1       27.9849        7.1006       157.876
357             2             1       28.4848       6.24891       159.057
358             2             1       29.4011       7.09172       159.812
359             2             1       29.6283       6.43019       161.192
360             2             1       30.4845       7.14371       162.285
361             2             1      0.113251       6.15585       163.187
362             2             1      0.890262        6.9938       164.231
363             2             1       1.56614       6.18737       165.354
364             2             1       2.48436       6.96307       166.272
365             2             1       2.98087       6.16829        167.45
366             2             1       3.99595       7.01766       168.105
367             2             1       4.48215       6.38485       169.356
368             2             1       5.33198       7.26774       170.184
369             2             1        6.0373       6.49251       171.302
370             2             1       5.11367       6.00142        172.41
371             2             1        5.9226       5.26452       173.389
372             2             1       5.03589       4.58618        174.48
373             2             1       5.67393       3.71433       175.562
374             2             1       4.77171       3.19919       176.712
375             2             1       5.17691       2.09022       177.548
376             2             1       4.26266       1.71501       178.765
377             2             1       4.92123      0.674503       179.663
378             2             1       4.01758      0.164042       180.758
379             2             1       3.37456       1.07056       181.786
380             2             1       2.36351      0.349286       182.637
381             2             1       1.70731       1.24655       183.639
382             2             1      0.696186      0.606582       184.633
383             2             1      0.213253       1.57325        185.72
384             2             1       30.6295      0.854535       186.853
385             2             1       30.2314       1.60256       188.084
386             2             1       29.2602      0.924133       188.975
387             2             1       28.8302       1.72747       190.203
388             2             1       28.0859      0.836312       191.206
389             2             1       27.4895        1.6568       192.292
390             2             1       26.8127      0.867244       193.443
391             2             1       26.0681       1.63883       194.547
392             2             1       25.5185      0.750973       195.634
393             2             1       24.5352       1.53076       196.493
394             2             1        23.762        0.6518       197.445
395             2             1        24.643     0.0673959        198.53
396             2             1       23.9818       26.1618       199.564
397             2             1       24.9733       25.8552       200.638
398             2             1       24.5171       24.8019       201.657
399             2             1       25.4821       24.7027       202.867
400             2             1       24.9657       23.8689       204.046
401             2             1       25.8974       23.8053       205.207
402             2             1       25.7538       24.9846       206.129