LAMMPS data file via write_data, version 29 Oct 2020, timestep = 34000000

10752 atoms
2 atom types
10752 bonds
3 bond types
10752 angles
3 angle types
10752 dihedrals
3 dihedral types

-0.14342737199177158 31.011347371977322 xlo xhi
-0.12392513906040747 26.79464513903064 ylo yhi
-1.3149526912522447 284.31431269058396 zlo zhi

Masses

1 14
2 15

Pair Coeffs # lj/cut/omp

1 0.0914 3.95
2 0.1947 3.75

Bond Coeffs # harmonic/omp

1 449.5 1.53
2 449.5 1.53
3 449.5 1.53

Angle Coeffs # harmonic/omp

1 62.0967 114
2 62.0967 114
3 62.0967 114

Dihedral Coeffs # opls/omp

1 1.411 -0.271 3.145 0
2 1.411 -0.271 3.145 0
3 1.411 -0.271 3.145 0

Atoms # molecular

230 2 1 5.06694778034461 3.295265443839802 2.0537910104414556 0 0 0
231 2 1 5.6973128708012695 3.9923194481456914 3.299660021472107 0 0 0
229 2 1 5.738862186966167 3.8562139931607193 0.8016291700298788 0 0 0
2 1 1 1.642696493296958 1.6893059693941603 0.7034148186901299 0 0 0
232 2 1 5.315431185814626 3.371251658151373 4.635727381416503 0 0 0
4 1 1 1.705636612482709 1.6367131902599017 3.2145119334092183 0 0 0
454 3 1 1.151770807173604 5.627192755909964 4.483937764620135 0 0 0
1 1 1 1.5086990004682932 0.7867313387532656 -0.5478131515168915 0 0 0
450 3 1 1.074559022310577 5.10512334753515 -0.4063613753338675 0 0 0
452 3 1 1.177882922755076 5.544804273639773 2.061850527606943 0 0 0
5 1 1 1.3976583042225574 1.0358695485572103 4.597304301286338 0 0 0
3 1 1 1.3166508651735689 0.8303019659369818 1.963129180134469 0 0 0
453 3 1 1.9448565218475138 6.011679717361983 3.2508820982998197 0 0 0
228 2 1 5.316838542628844 3.061865517023657 -0.4122464920899793 0 0 0
451 3 1 1.7160345834800517 5.842497324024466 0.7492600157557989 0 0 0
455 3 1 1.7668150633860558 6.048589744251981 5.76549483059295 0 0 0
2693 13 1 9.088982620928764 1.649294226481202 4.765700770455561 0 0 0
2691 13 1 9.367014965806133 1.6154890605873884 2.2581000581039143 0 0 0
2915 14 1 12.62506044262258 2.9530283351790683 2.2962018528253623 0 0 0
2917 14 1 12.544388678420399 3.2687158909851135 4.784157588357624 0 0 0
2914 14 1 13.28865647160748 2.650636486795898 0.9685399413061915 0 0 0
2916 14 1 13.17592595295887 2.5185140185294737 3.6306863034369217 0 0 0
2692 13 1 9.79615983004419 0.9746840577964235 3.6079971683253937 0 0 0
2690 13 1 9.561964701993936 0.7797311502469711 1.0169510734092846 0 0 0
2689 13 1 9.11791341696527 1.4411164142748907 -0.2857208984650419 0 0 0
2913 14 1 12.773956133959366 3.295877445507281 -0.2829417470351585 0 0 0
3139 15 1 9.023038906341787 5.176718637666589 3.586656921404244 0 0 0
3137 15 1 9.039995516823488 5.212596325691736 0.9828857033233613 0 0 0
3360 15 1 9.216531556144254 6.044640020106828 -0.32658935015829627 0 0 1
3140 15 1 9.028129618630132 5.9961923864510664 4.877388640897217 0 0 0
3138 15 1 9.02427683007663 5.9738004934313 2.287344027915551 0 0 0
676 4 1 5.958418567615409 7.913320261701722 1.086941619094751 0 0 0
678 4 1 6.056614949970142 8.118245672137377 3.652402834245601 0 0 0
677 4 1 5.269071339930741 7.583643711229129 2.40216203556493 0 0 0
675 4 1 5.339664513031929 7.409215249728543 -0.2282393712852504 0 0 0
900 5 1 2.2669521856971655 9.724696393144043 0.7377621446905089 0 0 0
902 5 1 2.0928409579631073 9.712100003115884 3.313424759198212 0 0 0
901 5 1 1.3525134053068977 9.529952548498999 1.9695009692562095 0 0 0
903 5 1 1.1438029805479417 9.88783532933741 4.496499893438634 0 0 0
899 5 1 1.4929892287283375 9.510202635734965 -0.5601148520193503 0 0 0
679 4 1 5.223474856145573 8.103968558648491 4.943948850260216 0 0 0
1122 6 1 5.761327997530636 11.818483410482557 -0.8957615136134665 0 0 0
1124 6 1 5.548247636212153 11.625059136046128 1.7185400935804358 0 0 0
1126 6 1 5.342236186403572 12.002644463502515 4.213483308715749 0 0 0
1125 6 1 5.231696011929941 12.621730024712818 2.846311107103335 0 0 0
1123 6 1 5.982742957826486 12.44860628936975 0.47448376045634943 0 0 0
904 5 1 1.9742162424028153 10.098449008973914 5.8127807623267715 0 0 0
3364 16 1 12.932823683978542 7.232844493756927 3.50105085105902 0 0 0
3362 16 1 13.077929127360532 7.29794015016815 0.8550534230795122 0 0 0
3589 17 1 9.0657719432847 10.691160280021371 4.72670546256904 0 0 0
3365 16 1 13.05263266877342 8.203544576719857 4.69524606245426 0 0 0
3363 16 1 13.111247437754113 8.056107626186849 2.179005436351929 0 0 0
3587 17 1 9.161472309955432 10.868777426143938 2.2807840735225295 0 0 0
3588 17 1 9.390123256179042 9.955326558434217 3.446963557355337 0 0 0
3586 17 1 9.361391605570846 10.011122143528832 1.0459953209448258 0 0 0
3812 18 1 13.485771266335083 12.43151308843987 2.9933060750084284 0 0 0
3810 18 1 13.348980411224938 12.232427053421137 0.4678794926327985 0 0 0
3361 16 1 13.083780134139355 8.150515893964409 -0.39086204719031914 0 0 0
3585 17 1 9.264293325516775 10.61436738709152 -0.3689753093620711 0 0 0
3811 18 1 12.561271513659605 12.242713776042908 1.7397047623597448 0 0 0
3813 18 1 12.769731417308549 12.256219401160505 4.356524627281656 0 0 0
3809 18 1 12.593938913911316 12.237881483681274 -0.8446483974253336 0 0 0
3366 16 1 12.998456902057491 7.454984582523345 6.020609508565958 0 0 0
1349 7 1 1.0399450911851984 14.216681789178798 4.5483655403466505 0 0 0
1347 7 1 1.3665201392796398 13.837488374321325 2.003275317073872 0 0 0
1348 7 1 1.8760160727914004 14.57163756007555 3.2546892841132893 0 0 0
1346 7 1 2.0151576925498222 14.525961754361841 0.718041237556172 0 0 0
1570 8 1 5.33798576974117 16.341550398742786 1.7578465253863644 0 0 0
1572 8 1 4.9793665842639765 16.65739057473298 4.344283156180489 0 0 0
1571 8 1 5.36107022566655 17.2263015754353 3.0026725241908796 0 0 0
1569 8 1 5.454115127701607 17.12530444484267 0.47221557503908973 0 0 0
1797 9 1 1.258456404623658 18.59996205948622 4.847395577902532 0 0 0
1795 9 1 1.318347657019585 18.418403877082188 2.185372827473652 0 0 0
1792 8 1 5.280319406259611 16.32506102581903 -0.8117141657123815 0 0 1
1793 9 1 1.2933492056527651 18.39270778441076 -0.31482309284576226 0 0 0
1345 7 1 1.2430569425100892 14.257939897690056 -0.5746652592759256 0 0 0
1794 9 1 1.8656946365381404 19.033839054927913 0.8968255336656714 0 0 0
1796 9 1 1.572560197732233 19.306250576856243 3.488705254204035 0 0 0
1350 7 1 1.4773941784747184 15.020551882225593 5.762717239517768 0 0 0
1798 9 1 1.6370665007308545 19.560961828194383 5.970405835648011 0 0 0
4036 19 1 9.71010239938437 14.897631894231889 3.145478142452034 0 0 0
4034 19 1 9.386657744482498 14.544221801472627 0.6768513824006301 0 0 0
4035 19 1 8.87212829021935 15.1699078419619 1.9366322852352105 0 0 0
4037 19 1 8.997636649857709 15.354187063277372 4.40433200427531 0 0 0
4258 20 1 13.884702516444596 16.541804335649463 0.39605099425709267 0 0 0
4259 20 1 13.36434963289451 17.301867171884005 1.6154879903926616 0 0 0
4261 20 1 13.439885474891135 17.233579138219405 4.166382379130114 0 0 0
4260 20 1 13.594432184502072 16.441011950134335 2.8501629719748713 0 0 0
4257 20 1 13.549532463166607 17.171952876718002 -0.9712685807100281 0 0 0
4033 19 1 9.07130208402848 15.33359859476835 -0.6206433725891404 0 0 0
4485 21 1 8.56747133018716 19.379431352975665 4.665402819379268 0 0 0
4484 21 1 9.352474134084796 19.117949400135668 3.3464049247868877 0 0 0
4482 21 1 9.310966574394014 19.21065034307832 0.7658472585645248 0 0 0
4483 21 1 8.573242874290969 19.40714720629488 2.0733989448173125 0 0 0
4481 21 1 8.471125538722907 19.284267470746943 -0.5370403248493786 0 0 0
4038 19 1 9.700708531046152 14.90928347368862 5.670582390855112 0 0 0
4486 21 1 9.294732663535507 18.9843924899215 5.9453768961659605 0 0 0
2467 12 1 5.794536230668455 26.018063472242677 0.889165469258991 0 0 0
2469 12 1 5.621646612928417 26.163756055845617 3.476212613022061 0 0 0
2468 12 1 5.333015173022255 25.404772586106862 2.1968493458082627 0 0 0
2470 12 1 4.942821896283915 25.76607874659813 4.747645749939455 0 0 0
2240 10 1 4.959481038058006 20.869642035812664 -0.2788466277359327 0 0 1
2020 10 1 5.27204743806675 21.20213596021853 4.9174005816827675 0 0 0
2018 10 1 5.014961423428626 21.00738062068956 2.308006055053181 0 0 0
2245 11 1 1.4534285175843966 23.395771075031355 4.806650545009048 0 0 0
2019 10 1 4.910858180667235 21.881077283745793 3.5837039259166517 0 0 0
2244 11 1 1.7882130475159321 24.07380934481791 3.446516658816794 0 0 0
2242 11 1 1.6218417234376352 23.841883079972874 0.9374745132588709 0 0 0
2017 10 1 5.070013022052639 21.747853309344443 0.9767174100360791 0 0 0
2243 11 1 1.4971426504944254 23.173416916776123 2.239439464465635 0 0 0
2241 11 1 1.2886339016485546 22.99775687338895 -0.2790540782941293 0 0 0
2466 12 1 5.228600201478828 25.44863079657554 -0.38718221458758806 0 0 0
2471 12 1 5.705199322208883 26.348601226934115 5.921121969122959 0 0 0
2021 10 1 5.051726349171979 22.089254221539612 6.095667115003346 0 0 0
5153 24 1 12.506597788492652 25.444521707036223 -0.6591563849186663 0 0 0
5157 24 1 12.926854043457054 25.611750934280778 4.49971331368248 0 0 0
5155 24 1 12.723602241224711 25.387436289760252 1.8899137949282512 0 0 0
4706 22 1 13.355620776497654 21.05734793016502 0.7742607453558201 0 0 0
4708 22 1 13.588713140616909 21.063282120674717 3.239279176151924 0 0 0
5156 24 1 13.575415512363746 25.55091459846478 3.131412231394574 0 0 0
5154 24 1 13.459285406870077 25.367273710248696 0.6061208276998491 0 0 0
4929 23 1 9.029086448193008 24.028353496910906 2.1866607443554247 0 0 0
4931 23 1 8.934716451826253 23.774873030003597 4.746726506503117 0 0 0
4930 23 1 9.23402144251052 23.100861426202005 3.411782711404772 0 0 0
5152 23 1 9.41438619922642 23.221717479988484 0.969330037349915 0 0 1
4709 22 1 12.856381862610576 21.34021455757406 4.5431358241252635 0 0 0
4707 22 1 12.585753953085915 21.138775183533433 2.066036589332187 0 0 0
5151 23 1 9.101553572517918 24.03842309172849 -0.2706408366052828 0 0 1
4705 22 1 12.551236332912731 21.072470398694257 -0.5508134486238849 0 0 0
4710 22 1 13.744903125002837 21.377045387686298 5.829160093103975 0 0 0
4932 23 1 9.33206374126419 22.995002005568043 6.036762676295689 0 0 0
233 2 1 5.987487120876519 3.9531262759312984 5.868312383848706 0 0 0
6 1 1 1.821548564413279 1.837546669957807 5.882579187717507 0 0 0
236 2 1 5.175508313241657 3.6084235480309204 9.72869358350901 0 0 0
234 2 1 5.544585531243647 3.290594716466123 7.183714062977211 0 0 0
235 2 1 5.852494260147007 4.038063012383788 8.475750302820336 0 0 0
237 2 1 5.722772598354102 4.241478284609976 10.987368965165416 0 0 0
456 3 1 1.2998629628928764 5.548066930656186 7.1242956456180195 0 0 0
8 1 1 1.877024857049248 1.8939864467884404 8.397064019448697 0 0 0
10 1 1 1.7516740538748 1.907528179222937 10.961544614438257 0 0 0
238 2 1 5.044851672459101 3.691626633283542 12.260823880742203 0 0 0
458 3 1 1.2448451782288823 5.801019084624894 9.665375459335639 0 0 0
7 1 1 1.5154291404740328 1.1240845046099286 7.1634939219363645 0 0 0
9 1 1 1.2325819163646026 1.2931761295762656 9.667240291329966 0 0 0
11 1 1 1.222566787799762 1.3631451782621677 12.292076419147277 0 0 0
460 3 1 1.1006237812784838 5.841217687401132 12.20553989484381 0 0 0
457 3 1 1.8553857598670127 6.285778930970532 8.345770693232152 0 0 0
459 3 1 1.7217384517001895 6.448501287089576 10.924439689096811 0 0 0
3141 15 1 9.396437349994132 5.194428695069018 6.086587864301746 0 0 0
2694 13 1 9.525240201811842 1.0079096872276119 6.07113526439008 0 0 0
2918 14 1 13.339140281399796 2.8374903784927916 6.070336396227791 0 0 0
2921 14 1 13.299113487847467 3.919352583124385 9.822056250383051 0 0 0
2919 14 1 12.935034828809973 3.6115576188515064 7.346962205775542 0 0 0
2695 13 1 9.040640365494225 1.611983646207127 7.4025423679983895 0 0 0
2697 13 1 9.277017312259266 1.8613013887771384 9.973070725634217 0 0 0
2922 14 1 13.963319841915153 3.459201828686229 11.122579837943938 0 0 0
2920 14 1 13.623475876665994 3.055624233936671 8.559792532516864 0 0 0
2699 13 1 9.536303243088263 2.075876906354185 12.501028990334401 0 0 0
2698 13 1 9.924808282765364 1.3438811554337877 11.257743180422603 0 0 0
2696 13 1 9.614927193011336 1.0222504624472464 8.702192194147981 0 0 0
2923 14 1 13.639005148093855 4.272308176591315 12.372231145469069 0 0 0
3143 15 1 9.772162399550776 5.555146466977059 8.546908334243582 0 0 0
3145 15 1 9.825766828953967 5.650784874404251 11.113968793637712 0 0 0
3144 15 1 9.311007196087788 6.225716644768811 9.82511473280666 0 0 0
3142 15 1 9.02735618212815 5.999951510085361 7.2653049248614145 0 0 0
3146 15 1 9.193068210114328 6.23382708540316 12.403502111549892 0 0 0
680 4 1 6.05245398133332 8.52988165175703 6.1707036713043 0 0 0
1127 6 1 5.388509956597201 12.919021147304374 5.473527158508736 0 0 0
682 4 1 5.945540913027348 8.397398655126791 8.802148611374866 0 0 0
684 4 1 5.769038791057824 8.574292133379924 11.291847591765393 0 0 0
683 4 1 5.190182931132332 7.94313480917145 10.04966522915842 0 0 0
681 4 1 5.393061569402605 7.9274020135346905 7.435564194723499 0 0 0
906 5 1 1.8560993870505287 10.29654861343314 8.31838373953306 0 0 0
908 5 1 1.8957492903946274 10.130415820540156 10.879054806311968 0 0 0
907 5 1 1.0535780892382711 10.516873517635977 9.602468140237413 0 0 0
905 5 1 1.0557078505758024 10.12098663445447 7.0201563078522415 0 0 0
909 5 1 1.056591777887245 10.229003188816389 12.138484064820902 0 0 0
1132 6 1 5.361910413221903 12.479879388374187 11.761738451020815 0 0 0
685 4 1 5.062752109356942 8.196948281865444 12.567701615888959 0 0 0
1130 6 1 5.087183516715949 12.480373297544775 9.278779256384672 0 0 0
1128 6 1 5.278684471093402 12.214257530456209 6.773221223972449 0 0 0
3590 17 1 9.692168412741552 10.243907474481576 6.059147910747856 0 0 0
3814 18 1 13.641745619812616 12.170649368355983 5.659638896903408 0 0 0
3368 16 1 13.361365774714027 7.745048800578712 8.57882123984239 0 0 0
3370 16 1 13.66992057264664 8.156326470065267 11.031066445989675 0 0 0
3369 16 1 12.956925496833348 8.649195341163432 9.74486536770886 0 0 0
3367 16 1 12.909162275308235 8.324145775217215 7.2131683824001485 0 0 0
3371 16 1 13.235251613143523 8.857229518317013 12.331241814047981 0 0 0
3593 17 1 9.308553043080458 10.973489619086621 9.920584886752863 0 0 0
3591 17 1 9.383365173487325 11.047732027504859 7.328932198598672 0 0 0
3592 17 1 9.80571918169834 10.355004463580222 8.605310617237468 0 0 0
3594 17 1 9.638986530312472 10.151393232853666 11.138515423854955 0 0 0
3595 17 1 9.347141454885465 10.816092952573813 12.512490896041967 0 0 0
3818 18 1 13.806762483021494 12.658251119208245 10.745596587742137 0 0 0
3816 18 1 13.631997975481134 12.550951732078072 8.098394900957546 0 0 0
3819 18 1 13.03743706761578 12.68095687086428 12.04898488717146 0 0 0
3815 18 1 12.818593197437528 12.61566861177881 6.893150078411987 0 0 0
3817 18 1 12.920843482149374 12.59279886621565 9.461849232836474 0 0 0
1573 8 1 5.015851185304311 17.624762031150894 5.4395539849974055 0 0 0
1131 6 1 5.3153680075635625 13.340699054082592 10.503366679096462 0 0 0
1129 6 1 5.391011188972378 13.228440993227911 7.949433304533047 0 0 0
1355 7 1 1.0098620326961365 14.578984712894066 12.327547322628723 0 0 0
1351 7 1 1.108368083729139 14.31130799851067 7.053548240790596 0 0 0
1353 7 1 1.052662942723025 14.252993720380285 9.66930757735595 0 0 0
1352 7 1 1.6185723219441874 14.90068600510769 8.3933319977563 0 0 0
1354 7 1 1.6293282786838135 14.85772406574638 10.957493267838853 0 0 0
1574 8 1 4.827496374781639 16.96331828637109 6.771856199954984 0 0 0
1576 8 1 4.826402954461909 17.18496037113966 9.363625318554277 0 0 0
1575 8 1 5.170623149034027 17.823231956056365 7.9951624645426485 0 0 0
1577 8 1 5.297814748607033 17.882056873182393 10.644289541594766 0 0 0
1578 8 1 4.978583947652664 17.05971852648799 11.888993712509478 0 0 0
1799 9 1 1.6993297424662572 18.852355875197595 7.326392590322598 0 0 0
1801 9 1 1.3630043364406446 18.816826188659704 9.82291709503219 0 0 0
1803 9 1 1.3747883790085806 18.736625805529428 12.374404491036147 0 0 0
1802 9 1 1.6237197926170408 19.529901088028105 11.103310544472857 0 0 0
1800 9 1 1.7849172057478155 19.672444406803002 8.599666065491288 0 0 0
4262 20 1 13.309020157474322 16.480495910125015 5.512323243582123 0 0 0
4040 19 1 9.574865790068428 14.693790727598838 8.2428068711915 0 0 0
4042 19 1 9.5343516715432 14.812189061603103 10.89388264162408 0 0 0
4039 19 1 8.836309631497153 14.99268890903463 6.915690643435029 0 0 0
4041 19 1 8.816927748782899 15.082192270146335 9.53198905375177 0 0 0
4043 19 1 8.77690032020528 15.030961346423904 12.226135510343001 0 0 0
4265 20 1 13.103937627849728 17.54339331439606 9.357596076177995 0 0 0
4263 20 1 13.186642935011523 17.426553017150045 6.697097869175973 0 0 0
4266 20 1 13.146896453532051 16.760014637625886 10.67011161327665 0 0 0
4264 20 1 12.908960116321701 16.75675341833351 8.095223859671709 0 0 0
4267 20 1 13.052310155150735 17.5724094220444 11.957990202203849 0 0 0
4490 21 1 9.572502873404174 19.579894580936603 11.065434800491015 0 0 0
4488 21 1 9.444697972126587 19.072412915169775 8.517503931328717 0 0 0
4489 21 1 8.665796120986855 19.42911597688819 9.83646349614902 0 0 0
4491 21 1 8.65639050227641 19.454540955761082 12.307389919797302 0 0 0
4487 21 1 8.58968841818669 19.20380938498345 7.2753415734034395 0 0 0
2246 11 1 1.8120412703913293 24.089764004900555 6.095878636751042 0 0 0
2473 12 1 5.738639473170187 26.62688463282537 8.414911878964363 0 0 0
2475 12 1 5.930462620959521 -0.0345570375906948 11.0219431668309 0 1 0
2476 12 1 5.368003581988613 26.39067748643351 12.316511939337454 0 0 0
2472 12 1 5.038829945100283 25.959962281048266 7.251529615851947 0 0 0
2474 12 1 5.126250158106899 26.38705486956557 9.816070771329038 0 0 0
2026 10 1 5.167188503942299 21.800215351632225 12.502057288365647 0 0 0
2022 10 1 5.198594698396947 21.413115675820567 7.432358231943606 0 0 0
2024 10 1 5.385523424459332 21.65080123672127 10.056467795202563 0 0 0
2250 11 1 1.7373433625261054 24.368053048033218 11.098732707515039 0 0 0
2251 11 1 1.3899677688010397 23.62672159058833 12.405145587518907 0 0 0
2023 10 1 5.226596885230558 22.302964650899366 8.690694012553358 0 0 0
2025 10 1 5.2861493522077705 22.620089312224007 11.25711940446452 0 0 0
2247 11 1 0.988237923176084 23.65605126537914 7.303311076338302 0 0 0
2248 11 1 1.4718137694447613 24.421346465279036 8.568047524612798 0 0 0
2249 11 1 1.050749825299014 23.774214104012792 9.844281527959899 0 0 0
5158 24 1 13.774192522485784 25.841799654182932 5.712152828383443 0 0 0
5159 24 1 12.964693536637988 25.950111308659206 6.998911038599061 0 0 0
5163 24 1 13.011807431752363 26.40662230737167 12.042071911417338 0 0 0
4714 22 1 13.234083155396986 21.38567344452993 11.023907517572047 0 0 0
4712 22 1 13.50080438837213 21.647147383569607 8.370655512915866 0 0 0
5161 24 1 12.838505166049266 26.0138066464347 9.4973999013906 0 0 0
4711 22 1 12.836860183149959 21.74489987034363 6.989076557679722 0 0 0
4713 22 1 12.605686145736486 21.643868020426247 9.636202500297962 0 0 0
4933 23 1 8.914173433573353 23.826181421546448 7.20662404673576 0 0 0
4934 23 1 9.575078012390806 23.451485727061716 8.462128981164259 0 0 0
4935 23 1 9.100071518950532 24.218921104352255 9.697701209699323 0 0 0
4937 23 1 8.870345145743082 24.28388913971247 12.267405472242931 0 0 0
4936 23 1 9.49619106030692 23.564096592417886 11.031986335108563 0 0 0
4715 22 1 12.44195939746477 21.75975211794716 12.296634057441986 0 0 0
5162 24 1 13.737182329466934 26.020469524463728 10.733078770289788 0 0 0
5160 24 1 13.723806641464252 25.893363338729447 8.274413963997693 0 0 0
12 1 1 1.624264664415083 1.979170186803382 13.604139611983943 0 0 0
239 2 1 5.822763413172291 4.052268363896675 13.511982881087436 0 0 0
241 2 1 5.819248028620842 4.1166634793236065 16.124911867350338 0 0 0
240 2 1 4.983808809593225 3.8016195765225427 14.806170028533728 0 0 0
242 2 1 5.182638565539804 3.844035931546917 17.50899069896381 0 0 0
16 1 1 1.9326576700267348 2.311248915913234 18.76429757663277 0 0 0
14 1 1 1.626828730928882 2.0512017426966356 16.142667200373097 0 0 0
243 2 1 6.0275851769812245 4.2739504034809395 18.721024742694606 0 0 0
464 3 1 1.0898502558068819 6.0207519780855225 17.35075337654268 0 0 0
13 1 1 1.3744799144279256 1.195082189905794 14.8909009623606 0 0 0
15 1 1 1.7894729213934861 1.3983483084911892 17.510259224588715 0 0 0
462 3 1 1.0629021437144819 5.887008948207294 14.739726239252732 0 0 0
465 3 1 1.883644631225465 6.264652602668809 18.628535749541843 0 0 0
463 3 1 1.77900488722033 6.2826891015197965 16.04311376596377 0 0 0
461 3 1 1.8643570466163015 6.19215719705816 13.480228784925872 0 0 0
17 1 1 1.7125997739631373 1.5666128674697852 20.095735984433105 0 0 0
466 3 1 1.03332488212102 6.108470106596862 19.862704742406624 0 0 0
3147 15 1 9.995876313061517 6.003106119624193 13.661091384381145 0 0 0
2924 14 1 13.982252526393715 3.4864788064483707 13.646777244718228 0 0 0
2700 13 1 9.74481979034752 1.3491806202854535 13.86862488149728 0 0 0
2925 14 1 13.488007081485206 4.304183684839355 14.87207202272893 0 0 0
2927 14 1 13.322918897959157 4.433270032975694 17.472822422405866 0 0 0
2701 13 1 9.405755003212251 2.2437523917030093 15.03220453471717 0 0 0
2703 13 1 9.018217361389981 2.2504214659856836 17.540473648333098 0 0 0
2926 14 1 13.651821397542616 3.589789779846993 16.191057646624973 0 0 0
2928 14 1 13.821304621677433 3.8006324797394777 18.774961323936857 0 0 0
2702 13 1 9.463474363121477 1.4546033568295051 16.299378845776726 0 0 0
2704 13 1 9.236756583421213 1.4300377018364734 18.85637311161164 0 0 0
3151 15 1 9.877781486811715 5.822525392622351 18.840089290325402 0 0 0
3149 15 1 9.937639942661988 5.9699006622091355 16.226982042766977 0 0 0
3150 15 1 9.150503515096965 6.014970038554794 17.49893316971251 0 0 0
3152 15 1 9.067688769721913 6.123158449982725 20.072424888548795 0 0 0
3148 15 1 9.220321542851902 6.418522093294921 14.92393703306902 0 0 0
2705 13 1 9.162094659720555 2.270105166556298 20.097204266532174 0 0 0
5169 24 1 12.860735234551116 26.366120260091435 19.586550586593066 0 0 0
910 5 1 1.8631149649210013 10.32692564026503 13.442115008134811 0 0 0
686 4 1 5.835540629620481 8.675197544658564 13.852682850331542 0 0 0
688 4 1 5.682951742357649 8.854511240445671 16.361401434657854 0 0 0
912 5 1 1.9436941292753454 10.387524982525928 16.01385011008916 0 0 0
914 5 1 2.1790311593478955 10.305810067182216 18.673634675352673 0 0 0
687 4 1 5.180191003095185 8.152089826527604 15.133184120789625 0 0 0
689 4 1 5.338141870697064 8.24438416183703 17.702663041447455 0 0 0
911 5 1 1.0950980915836253 10.272194670423607 14.756239642266255 0 0 0
913 5 1 1.2764976086491358 10.521271055164576 17.384980754627104 0 0 0
1134 6 1 5.1634516660881955 12.441837256205192 14.448276291271561 0 0 0
690 4 1 6.131650194590787 8.820893845162754 18.912586590212722 0 0 0
1136 6 1 5.045710166274702 12.574718918946987 16.992115535163098 0 0 0
1137 6 1 5.9479045984221734 12.93607516394954 18.19662111817693 0 0 0
1133 6 1 5.487744297061946 13.163506677693048 13.116027961870824 0 0 0
1135 6 1 5.41500045659291 13.261612101660232 15.659552990118737 0 0 0
691 4 1 5.620197661265887 8.424856084836183 20.28652680265791 0 0 0
915 5 1 1.442681824576252 10.292247983655237 20.024931213999622 0 0 0
3820 18 1 13.820112572776692 12.97534219719784 13.367009308823294 0 0 0
3596 17 1 9.860691236397097 10.059641247452666 13.717383844906893 0 0 0
3374 16 1 13.621263167596926 7.912275264261439 16.193095114366525 0 0 0
3372 16 1 13.60850473011358 8.090184603502726 13.609483216473707 0 0 0
3376 16 1 13.674424584789415 7.833407222844317 18.703661295079364 0 0 0
3375 16 1 13.109909257065791 8.570718612168438 17.488191890156237 0 0 0
3599 17 1 9.181061990932163 10.891665854831912 17.59897186182941 0 0 0
3373 16 1 13.029946113888444 8.61098954318534 14.94156226716969 0 0 0
3597 17 1 9.185372654765894 10.714230273464658 14.894479057653957 0 0 0
3598 17 1 9.752580924788514 10.476485033798033 16.28002522289314 0 0 0
3600 17 1 9.94271695039859 10.375291320659402 18.779794709858113 0 0 0
3822 18 1 13.995889789725515 12.748851619054557 15.892713313486226 0 0 0
3824 18 1 13.961664945813212 12.517103985612975 18.456406168799166 0 0 0
3823 18 1 13.103793561948748 12.578584402170955 17.137183265732364 0 0 0
3821 18 1 13.086690754470135 12.929190606256574 14.654581902320675 0 0 0
3377 16 1 13.505022278165347 8.74207654290642 19.940810211305376 0 0 0
3601 17 1 9.335648815355377 10.821680367392885 20.08851614059154 0 0 0
1804 9 1 1.6792629407892072 19.559596156477514 13.652719010957654 0 0 0
1579 8 1 5.465525205880317 17.781588466421535 13.168907018554876 0 0 0
1356 7 1 1.5867983479068155 15.190363344389157 13.615869755800444 0 0 0
1359 7 1 1.3830164325679635 14.320768749722102 17.433472465111684 0 0 0
1357 7 1 1.2581044314177776 14.399208457969747 14.882162458147125 0 0 0
1360 7 1 1.8875067547220343 15.046947363822305 18.685283120369565 0 0 0
1358 7 1 1.7415456339953581 15.089643827715024 16.16211741957597 0 0 0
1580 8 1 5.240252119226293 17.141414304577193 14.5320036002039 0 0 0
1583 8 1 5.59792891425793 17.866345910293823 18.43309443111662 0 0 0
1582 8 1 5.389389438952039 17.039721866289383 17.109459344026707 0 0 0
1581 8 1 5.633085195039512 17.828050357707795 15.793438062782677 0 0 0
1807 9 1 2.0407418484597417 18.98614299218762 17.46962349363212 0 0 0
1805 9 1 1.4516754766920617 18.88021371936257 14.987927592633067 0 0 0
1806 9 1 2.0140064169280225 19.75214394462947 16.1392729347619 0 0 0
1809 9 1 1.6224467494230401 19.1547376457196 19.92984892787875 0 0 0
1361 7 1 1.8019872722448158 14.193183481297828 19.948830483822903 0 0 0
4268 20 1 13.014317814629397 16.761396340877475 13.252922626780128 0 0 0
4044 19 1 9.637654678083996 14.688348928649319 13.475471501272985 0 0 0
4046 19 1 9.764515217191397 14.963951211791514 15.94645568759978 0 0 0
4048 19 1 9.908076868833762 15.13280345181224 18.434972855482577 0 0 0
4270 20 1 13.26540433395645 16.872329878110676 15.897921240278936 0 0 0
4045 19 1 8.835467692942295 15.082957632416202 14.674771273585716 0 0 0
4047 19 1 9.031741676789457 15.266823317658076 17.24821996890144 0 0 0
4269 20 1 12.8472684043525 17.53224431869497 14.548008133768127 0 0 0
4271 20 1 12.900335643112678 17.487604734134187 17.196823261442223 0 0 0
4272 20 1 13.372838203466513 16.78145127389851 18.478314507556632 0 0 0
4496 21 1 9.56720800681044 19.393603850830107 18.72109051787311 0 0 0
4492 21 1 9.46708909817873 19.601888532658332 13.569374775401341 0 0 0
4494 21 1 9.586327459417037 19.513228619538275 16.149476472401258 0 0 0
4495 21 1 8.777263109569123 19.811786612866573 17.463249646262174 0 0 0
4049 19 1 9.249286478704201 15.692587028506841 19.67438321923398 0 0 0
4493 21 1 8.750182791399228 19.718104737575885 14.854726398705019 0 0 0
4273 20 1 12.860298521206051 17.521166493809986 19.750091154521172 0 0 0
1808 9 1 1.6376801767999316 19.887472987927598 18.654677146311126 0 0 0
2477 12 1 5.964300853063183 0.12049499249911122 13.56963288075946 0 1 0
2481 12 1 5.789585335700852 -0.09229698027244014 18.710196338911278 0 1 0
2027 10 1 5.232607461929778 22.59726480028819 13.809882520938825 0 0 0
2479 12 1 5.881010176532901 26.7646002534243 16.14715206947598 0 0 0
2252 11 1 1.981104915725295 24.319307151687937 13.613455401935042 0 0 0
2480 12 1 5.133134649206912 26.357873282888594 17.411523682941898 0 0 0
2478 12 1 5.251165415090185 26.33377791810931 14.767153214405635 0 0 0
2030 10 1 5.351119707700302 21.752354421016904 17.614571263138316 0 0 0
2028 10 1 4.9577933567519175 21.801153320582472 15.081317574121787 0 0 0
2029 10 1 5.318898431214056 22.586155094904488 16.342946982870856 0 0 0
2254 11 1 2.0594802726507035 24.61795296318202 16.11824639129605 0 0 0
2256 11 1 1.961760970361233 24.848423721774612 18.700632171485267 0 0 0
2253 11 1 1.5982028994294626 23.68883339903991 14.962842976491444 0 0 0
2031 10 1 5.772712675947421 22.54231720111724 18.876233080800912 0 0 0
2255 11 1 1.8346725722898147 23.974147282164697 17.492703995903984 0 0 0
2257 11 1 1.705093469323912 24.041686383515955 20.040429688417454 0 0 0
2032 10 1 5.733838485374581 21.796228910204157 20.207396734207293 0 0 0
2482 12 1 5.299974112625212 26.192920055920954 19.99446640561533 0 0 0
4938 23 1 9.096970623579015 23.472242299663954 13.518740979638045 0 0 0
4716 22 1 13.329214548808647 21.45162755828991 13.483949312083688 0 0 0
5167 24 1 12.862247082219394 26.60593275445414 17.127493304980053 0 0 0
5165 24 1 12.964178329164653 26.578193714313585 14.582141598688164 0 0 0
4718 22 1 13.531150489844523 21.41771550663007 16.076508623534554 0 0 0
5164 24 1 13.820208375321265 26.282631190196156 13.34798685289716 0 0 0
4720 22 1 13.354872541584903 21.791593547534024 18.53462725967234 0 0 0
5166 24 1 13.629020543942195 26.1605464489641 15.8951516410254 0 0 0
5168 24 1 13.73211715165837 26.22283890528707 18.33367911498889 0 0 0
4717 22 1 12.726889222174945 21.859758152038356 14.8183803404483 0 0 0
4941 23 1 8.934250670663186 24.441061273563346 17.289941415244435 0 0 0
4939 23 1 8.741279416134901 24.29193415479591 14.750497408199 0 0 0
4940 23 1 9.144751616346824 23.580735862235777 16.07729414770801 0 0 0
4719 22 1 12.823397879606107 22.25957660837999 17.189896439763483 0 0 0
4942 23 1 9.428685542009255 23.762699309679125 18.59923929945572 0 0 0
4721 22 1 12.866096218462669 22.405508978992692 19.843259140407834 0 0 0
4943 23 1 9.078177241188827 24.39809245628952 19.960653850300403 0 0 0
4497 21 1 8.869685958522595 19.81935151969938 20.04125323962501 0 0 0
244 2 1 5.5825062613309795 3.6831071401481 20.044184228852817 0 0 0
247 2 1 6.1525051858270325 4.609744140094134 23.858256003568822 0 0 0
245 2 1 6.221281260569801 4.376496577325663 21.335314229458646 0 0 0
248 2 1 5.470912812962682 4.316440850573032 25.219455843948605 0 0 0
246 2 1 5.395832122655698 4.14686725396175 22.582807733203143 0 0 0
18 1 1 1.9262931216576122 2.2992710606486475 21.394028320996863 0 0 0
22 1 1 2.0161253789336535 1.8942772092898945 26.602299495694822 0 0 0
249 2 1 6.317804518890393 4.476220717654711 26.470181619895303 0 0 0
20 1 1 2.1554781338117865 2.082091955201773 23.977993008505244 0 0 0
468 3 1 1.211448051750671 5.9704636723545095 22.459251230939184 0 0 0
470 3 1 1.4208574215391676 5.926344624904566 24.994287749189425 0 0 0