LAMMPS data file via write_data, version 23 Jun 2022, timestep = 11112117

8487 atoms
2 atom types
8471 bonds
3 bond types
8455 angles
3 angle types
8439 dihedrals
3 dihedral types

0 36.89775039 xlo xhi
0 26.67072 ylo yhi
25.993440377747945 210.75816402223973 zlo zhi
0 5.813100510720081 0 xy xz yz

Masses

1 14
2 15

Pair Coeffs # lj/cut/omp

1 0.0914 3.95
2 0.1947 3.75

Bond Coeffs # harmonic/omp

1 449.5 1.53
2 449.5 1.53
3 449.5 1.53

Angle Coeffs # harmonic/omp

1 62.0967 114
2 62.0967 114
3 62.0967 114

Dihedral Coeffs # opls/omp

1 1.411 -0.271 3.145 0
2 1.411 -0.271 3.145 0
3 1.411 -0.271 3.145 0

Atoms # molecular

3863 31 1 16.214631097709088 17.778723691541416 29.74465746327858 0 0 1
8455 53 1 3.400932632497966 23.15580328264109 31.16746972306526 0 0 0
6526 53 1 1.6789662708291286 25.337800978130687 36.03674579136364 1 -1 0
737 5 1 9.263966110191408 5.517540295500261 27.89640760232791 0 0 1
6780 35 1 2.2492127998332903 1.5839775766991306 30.111459991490566 1 0 0
8454 53 1 2.012734537686126 23.704939190990313 30.762723535616246 1 0 0
1439 32 1 14.165810705869545 16.91787868657725 38.947179569938704 0 0 0
6931 38 1 2.9382471610498953 5.56473330500676 31.790828233874137 0 0 0
3824 27 1 16.760379494037576 16.989935742184283 30.956616137952707 0 0 0
1884 50 1 6.377134543978769 20.867623675092347 29.30508083082208 0 0 1
1902 20 1 18.201685441561022 23.480736023912677 39.12682273725541 0 0 0
1883 50 1 5.374503782815513 21.61373672121659 28.503990247362996 0 0 1
1662 12 1 10.50800707700431 18.9622940851953 29.520836474474265 0 0 1
932 45 1 16.359822265224647 13.11761692361671 42.14190242067761 0 0 0
953 45 1 3.6621313264241846 12.780121630089509 26.184194891731185 0 0 0
1437 32 1 12.608889377439532 16.938799863511502 36.93123285550634 0 0 0
739 5 1 10.95682400853464 5.7916136724647025 29.713387322186676 0 0 1
219 49 1 13.014125679603948 26.48566581400257 38.560199605125504 0 -1 0
220 49 1 13.71579429362543 25.76286148552898 39.771225486640866 0 -1 0
221 49 1 14.633810850514003 26.58717137775456 40.7023649829895 0 -1 0
222 49 1 15.443737506548208 25.793206482353614 41.719129131493574 0 -1 0
223 49 1 16.467189568138227 26.43615676174166 42.6127307728124 0 -1 0
3561 59 1 14.900138171738206 12.685950318691985 29.506117460859713 0 0 1
1664 9 1 12.065576612808258 18.847360041080513 31.470919372103044 0 0 0
301 24 1 6.740318962617157 4.032337931443023 30.78954073737659 0 0 0
3560 59 1 14.497522014610214 13.225224941651126 28.113283411333995 0 0 1
2115 20 1 9.715285457577929 24.07487106749949 28.334476617561826 0 0 0
6528 53 1 3.3313051207410487 25.36581907477764 38.068949208245144 1 -1 0
267 3 1 11.312667043305666 1.9356595891508772 30.59627979319417 0 0 0
268 3 1 12.28814518827101 1.0077333014956666 31.305768357600265 0 0 0
269 3 1 12.777423008810494 1.798855765214054 32.50699482967669 0 0 0
270 3 1 13.860935150176593 1.2713082838400578 33.365057659725984 0 0 0
1008 11 1 18.679944270490314 14.41194307340528 39.324125918776744 0 0 0
1885 15 1 6.876880069969387 21.522746444568824 30.59899297815377 0 0 0
266 3 1 10.632323312147001 1.192237483249773 29.467052825835225 0 0 0
8203 63 1 2.429796188136476 21.008275737420767 36.27792390007423 1 0 0
7763 60 1 3.2776283356523312 17.283137381175262 37.302195302667286 0 0 0
5101 40 1 1.4848928254198923 10.085469945765736 41.01327095887384 1 0 0
7990 62 1 10.827975152607422 19.54001288051901 40.64287344165491 0 0 0
3249 22 1 17.472399994586556 10.067336784684448 27.582774519320655 0 0 0
2113 20 1 8.322302684454717 24.024930831444173 26.23309850283819 0 0 0
7543 6 1 9.156044058121363 14.582095318604473 40.117745809863706 0 0 0
7981 62 1 3.6024325709845693 18.71190195647683 31.645548853714793 0 0 0
7769 60 1 7.7971374149642605 17.352328139562143 43.108784257823984 0 0 0
302 24 1 7.911769327169645 3.316341897540696 31.51554864079234 0 0 0
303 24 1 8.241749575091813 3.970522172058773 32.81556929932541 0 0 0
304 24 1 8.967873930228404 3.2210615310795383 33.94809528950523 0 0 0
305 24 1 9.696248023597233 4.122743949976098 34.95956171595348 0 0 0
306 24 1 10.656314053565064 3.401518493105422 35.79251508753919 0 0 0
307 24 1 11.444913134710763 4.402318851162455 36.71560370809547 0 0 0
308 24 1 12.234952774714076 3.7445690521043447 37.7729628866151 0 0 0
7980 62 1 2.8524710084561917 19.59067265156439 30.629300026103223 0 0 0
1219 11 1 8.810342941982164 14.971776930576269 26.192345795634164 0 0 0
1426 23 1 3.542203539397118 17.606464151569504 26.13870700311474 1 0 1
310 24 1 13.949904889868577 3.749509556839548 39.75279707692624 0 0 0
7315 58 1 4.321035179312435 12.446160237608227 40.36513461145829 0 0 0
1005 11 1 16.8459050510813 15.16616824326711 36.070668511345 0 0 0
273 3 1 15.933258295141123 2.392111469386884 36.444432928004474 0 0 0
214 1 1 9.395156112786642 25.645003133794162 33.34952820269132 0 -1 1
1435 23 1 10.994868737020177 16.61370291209154 34.989725806559136 0 0 1
6306 62 1 1.8728104568398753 23.91715445497973 41.34525960027718 1 0 0
4158 19 1 15.29212060719827 21.314691188089057 28.843654691110448 0 0 1
6532 53 1 6.477143831897351 25.395018505076635 42.24253730438019 1 -1 0
263 3 1 8.293720482061829 1.9451226899648162 26.432373887057206 0 0 0
6525 53 1 1.1979629478029763 26.07317447077911 34.791871029212494 1 -1 0
276 3 1 18.327617273155088 1.5709437992000936 39.31562960120539 0 0 0
1659 12 1 8.818513021007927 19.432610109025603 26.18773782025503 0 0 1
3862 31 1 15.054925034931452 17.053226390383767 29.041587518065853 0 0 1
525 6 1 18.61036037026404 5.652163800919829 39.804836457034014 0 0 0
6309 62 1 3.9220860661531534 22.937212882823005 44.46289322129688 1 0 0
522 24 1 4.711956877263068 3.348991061124209 27.425096051818254 0 0 0
3015 14 1 13.359878226305524 8.217405838349636 27.326205558433703 0 0 0
6305 62 1 1.019854226200196 23.063974834519218 40.38611333306872 1 0 0
3019 14 1 16.637628109160048 8.206742245595613 31.191720421007307 0 0 0
207 1 1 3.419664267728035 25.896336434838897 26.743585612997663 1 -1 1
7316 58 1 5.749846564009819 12.116597388769048 40.81675049965315 0 0 0
1434 23 1 9.717111163826251 17.17746771501684 34.37299613631154 0 0 1
210 1 1 6.52474747369103 25.679280719056667 29.194465378286687 1 -1 1
299 24 1 5.062791035514318 4.006819088044146 28.820528343081808 0 0 0
744 6 1 14.165597255828793 6.9491656798344925 35.25247072174195 0 0 0
745 6 1 15.539444767773091 6.569686132213223 35.9108232802902 0 0 0
746 6 1 15.789587902410284 6.994636810135018 37.31998503910879 0 0 0
747 7 1 11.016881141354046 8.79597363243072 36.90182416567658 0 0 0
748 7 1 11.621979689008834 8.156056007529221 38.13800869047038 0 0 0
749 7 1 12.863704163090622 8.80254884736235 38.7543641872021 0 0 0
750 7 1 13.62680529857811 7.935193935407923 39.70712709787051 0 0 0
931 45 1 14.99500349645168 12.611664641294414 41.7742407608189 0 0 0
265 3 1 9.828757393936897 2.0109800721474747 28.471269090912593 0 0 0
8451 53 1 0.2586155421645448 23.516887329784595 27.466467228286746 1 0 0
7546 6 1 12.234936304050695 15.214500288961327 42.50442630459099 0 0 0
4163 30 1 18.349617637149514 23.90697495070657 26.601624514546117 0 0 0
6975 56 1 2.6685107701726714 7.345920999985257 38.23142806638453 0 0 0
7312 58 1 2.6002007988584985 12.999928807724238 36.98506612787503 0 0 0
5992 4 1 0.5863328394321267 18.643713155875943 40.37057772767568 1 0 0
934 45 1 17.891719703499913 13.195481297792806 44.21624234049112 0 0 0
7762 60 1 2.018213220894715 16.735057540237655 36.58273899050026 0 0 0
7095 7 1 12.03240364256565 10.528685024824147 44.14324815973715 0 0 0
998 11 1 10.736545671355076 14.231286403635073 29.609772989412107 0 0 0
6779 35 1 1.5071082269363845 1.008946932644276 28.9321303450915 1 0 0
886 9 1 8.225420168427405 10.668157042467701 26.490357364476903 0 0 0
779 7 1 7.272636922972838 7.826386636750855 32.05733255290737 0 0 0
780 7 1 8.319482176498918 8.691670518226351 32.78873456894972 0 0 0
781 7 1 8.59710420106904 8.018021570185176 34.127082269460466 0 0 0
782 7 1 9.523586343731283 8.762734487253383 35.032578845507715 0 0 0
783 7 1 9.982876948224332 7.896671209634357 36.170209215197104 0 0 0
7982 62 1 4.475856489640588 19.458088879720094 32.61301699990572 0 0 0
523 6 1 17.02813876433645 6.253222602213129 37.88007606582153 0 0 0
275 3 1 17.196856605117322 2.2910487156682424 38.61230517148874 0 0 0
208 1 1 4.8530890156146 25.585054235912157 27.279363797896867 1 -1 1
524 6 1 17.32196824313325 6.381043467816446 39.403432013639254 0 0 0
890 9 1 11.390320340689588 10.813395655948687 30.41790578765103 0 0 0
891 9 1 11.963596856637357 9.997998227943807 31.600398472524034 0 0 0
892 9 1 12.90264795989139 10.91006380757675 32.41075279398886 0 0 0
751 7 1 14.54297866166101 8.765434295353767 40.62333022460472 0 0 0
5993 4 1 1.810793353555487 19.094306637026353 41.09080937992248 1 0 0
7089 7 1 7.305633627425434 10.152316491897864 38.17491274801254 0 0 0
1429 23 1 6.41108345609384 16.843988988300794 28.666618195742466 1 0 1
6973 56 1 1.1095549355657806 7.5445383686396434 36.10872567380466 1 0 0
271 3 1 14.307578219208475 2.2230871839424804 34.41082746125576 0 0 0
8207 63 1 5.953740631368524 20.877522536866636 40.127993214343256 0 0 0
2562 51 1 18.091916067244394 1.6507393458014983 28.299812211907142 0 0 1
6980 56 1 6.691403971830021 8.15395217490452 43.14164133755679 0 0 0
8201 63 1 1.0865645477719292 20.745899135522833 34.110826156766194 1 0 0
922 45 1 8.297785444837634 12.970166876967133 32.4010598050548 0 0 0
923 45 1 9.220295813653667 12.092985962258904 33.35121127284544 0 0 0
924 45 1 10.189346803853287 12.848249459321536 34.25277970805844 0 0 0
925 45 1 10.672392772667102 12.090590040562548 35.48038790262982 0 0 0
926 45 1 11.40656457078983 12.902095971820671 36.48749137871213 0 0 0
927 45 1 12.095560757983332 12.122514057188921 37.610725564293006 0 0 0
928 45 1 13.144952928637306 12.904237630957297 38.34592666592501 0 0 0
929 45 1 13.417206964233873 12.443867575578581 39.7993581857566 0 0 0
930 45 1 14.724769091834098 12.976759414151456 40.316563249804375 0 0 0
5995 4 1 3.3379568821615533 19.21415306843005 43.000176628455044 1 0 0
7542 6 1 9.034425413278788 14.869774076588305 38.65556565528623 0 0 0
5546 63 1 1.8279841758786959 14.28328775166209 42.17228110947126 1 0 0
895 9 1 15.397917747219589 10.34353951660845 35.28457738028151 0 0 0
7984 62 1 5.966263256100766 19.302710460931866 34.80505863439355 0 0 0
7541 6 1 7.59870374376191 14.37998567391483 38.24252752030732 0 0 0
8459 53 1 6.339395519363881 23.10741722982564 35.31748895874324 0 0 0
819 8 1 4.366617680973607 7.688131479219866 27.972196105764542 0 0 1
1665 9 1 13.208047948628154 19.606666124062087 32.09659747891259 0 0 0
954 45 1 4.32760901184882 11.982721272741431 27.281765731048765 0 0 0
955 45 1 5.102886493208756 12.90826090600571 28.272025900777408 0 0 0
956 45 1 6.059478227369389 12.16380074775774 29.24141328015944 0 0 0
957 45 1 6.848564876311015 13.083476175786096 30.22145883679933 0 0 0
958 45 1 7.332628056293386 12.281201426264207 31.47170349490215 0 0 0
6943 38 1 12.114133472987142 5.728493834819778 43.838784449169395 0 0 0
897 9 1 16.53837104983765 10.253467024268364 37.46796413458274 0 0 0
6833 33 1 3.069769485936068 3.081415001305215 37.54736158937314 0 0 0
999 11 1 11.993664870510656 14.875814786970386 30.203200363863314 0 0 0
1000 11 1 12.371536628766854 14.519218945038181 31.64132944643467 0 0 0
1001 11 1 13.671897222629338 15.086839297454116 32.231921522876796 0 0 0
1002 11 1 13.89865967280162 14.512786481977653 33.568123110926905 0 0 0
820 8 1 5.424575748178073 8.47465489869147 28.75902031225269 0 0 1
2573 18 1 16.798520483714444 3.847954480753999 31.33941657610932 0 0 0
3248 22 1 16.99030448727444 10.550178075310702 26.21863047335071 0 0 0
4923 37 1 2.0716158255278287 5.767545544812011 43.50773268873692 1 0 0
1003 11 1 15.175771395550274 15.100793042406925 34.161119594640226 0 0 0
1432 23 1 7.929303460253292 16.937252660391344 32.40831377467846 1 0 1
2118 17 1 16.946319001658885 25.738442149798715 31.17723928538784 0 -1 0
8456 53 1 3.6846374800254784 23.694375482152644 32.549076841270576 0 0 0
311 24 1 14.364031505445 4.420716090039058 41.06184791406836 0 0 0
7317 58 1 5.866452668272548 12.035084218067393 42.29259994278463 0 0 0
3825 27 1 17.472651035955085 17.817496087480958 31.95549286238985 0 0 0
5545 63 1 1.321932742983974 15.17830075929438 41.10391237191252 1 0 0
4922 37 1 1.760905680563713 5.053333657194564 42.204356716233015 1 0 0
264 3 1 9.05336783685312 1.1512836603412608 27.46802320214081 0 0 0
6838 33 1 6.668704328277691 3.6911535860585 42.940929919597195 0 0 0
521 24 1 3.3368669299847973 3.6900856314845285 26.879974150041587 0 0 0
6942 38 1 11.450380789092254 6.64798782766465 42.87279333409151 0 0 0
3563 26 1 16.762157856675042 12.590407361206099 31.146031977593633 0 0 0
6830 33 1 0.8254450762458032 4.04054859359487 34.61286363999251 0 0 0
8205 63 1 4.126201699719642 21.008383954969542 38.134923848869306 0 0 0
1661 12 1 10.328457860014527 19.40087336378438 28.03630033738527 0 0 1
740 5 1 11.154656412519362 6.409058826729821 31.140674909245142 0 0 1
6928 38 1 0.40594591359099186 6.614872411282769 28.97241263111953 1 0 0
3011 15 1 16.968141798523746 6.196848814370627 26.161426190612662 0 0 0
209 1 1 5.288803463130942 26.26861137451926 28.559194684423797 1 -1 1
6831 33 1 1.3272769766067314 2.9696210844336908 35.51572248065467 0 0 0
8463 53 1 9.231282191405517 23.466431560938364 39.56302167283445 0 0 0
7537 6 1 4.8735667965584994 14.36547693404613 33.836930764991436 0 0 0
6977 56 1 4.146190980413915 7.246703263322754 40.2536863929036 0 0 0
2574 18 1 17.509781262219686 4.50086416979897 32.55713321226551 0 0 0
888 9 1 9.845087142393707 10.621799270462152 28.45562618097946 0 0 0
1441 32 1 15.670581617676346 16.894992077428043 41.13922449254549 0 0 0
1442 32 1 16.026480597020274 17.512374709933297 42.500252575873475 0 0 0
7978 62 1 0.8308334571934692 19.712997773171995 29.08106796853785 0 0 0
1444 9 1 15.463204447649314 19.169985021625685 35.20319265045468 0 0 0
1445 9 1 16.173361796813303 19.871838965481516 36.380614801066464 0 0 0
3021 14 1 18.013938704917834 8.060369150791201 33.27978848906333 0 0 0
1903 20 1 18.60698294138821 24.00451277824764 40.488621990675014 0 0 0
3559 59 1 13.287443641929604 12.497764602793646 27.57862885747724 0 0 1
7080 7 1 1.0088659873448773 10.909214965436917 28.693385601455095 1 0 0
7082 7 1 2.2118779248860876 10.886248491243 30.80579149592547 0 0 0
3860 31 1 13.4901519602981 16.844753126705616 27.18998964891494 0 0 1
6929 38 1 1.5843341984401524 5.947280791309362 29.666950412379887 1 0 0
224 49 1 16.728277566449417 25.940105850214675 44.04845489865796 0 -1 0
7090 7 1 8.447236377730276 10.806253846637711 38.81567328716193 0 0 0
6974 56 1 2.209923954246478 8.148773741101376 36.96587462691619 0 0 0
6794 35 1 12.970897297155783 2.3614572398822786 44.18521531032836 0 0 0
6978 56 1 4.971969825091769 8.067526969723527 41.25246376237401 0 0 0
7320 58 1 8.95906984501391 12.464966048924559 44.38353781672978 0 0 0
2338 17 1 13.65346661564594 25.438445106497504 27.073083694109954 0 -1 0
1666 9 1 13.846224890417991 19.079145732412833 33.43448187828313 0 0 0
1667 9 1 14.845686176831064 20.001085610159006 34.05881704100762 0 0 0
1668 15 1 12.627353588635405 21.260653585715772 37.352000319711316 0 0 0
1669 15 1 13.015600128159315 22.09195264576063 38.59877575843335 0 0 0
1670 15 1 14.173133604101142 21.39774097824471 39.29503624393652 0 0 0
1671 15 1 14.674090193907587 22.040179677648215 40.61145748162188 0 0 0
1672 15 1 15.69867229342794 21.31552484359041 41.37722734696202 0 0 0
7532 6 1 1.596133609836337 15.05983261575486 28.435651073308076 0 0 0
4475 33 1 4.114328645437659 0.9697941536670786 44.13241711601526 1 0 0
896 9 1 16.0711291950202 11.214496762365142 36.37183844250521 0 0 0
6837 33 1 6.446164410543003 3.21476331656594 41.55182878118636 0 0 0
6976 56 1 3.8460196782706118 7.984373656184424 38.97780584564488 0 0 0
6782 35 1 3.720709471888558 1.548169835449347 32.05806256689319 1 0 0
309 24 1 12.868382406627578 4.4826662431420585 38.921849298279845 0 0 0
1007 11 1 18.50739742028888 15.138424231196696 38.01743842996881 0 0 0
3014 14 1 12.217444706498584 8.950296547768117 26.588521767069583 0 0 0
7988 62 1 9.234432255911607 19.494203108325248 38.689883037797024 0 0 0
8462 53 1 8.496798934314684 24.162072878322334 38.444074768690705 0 0 0
1663 9 1 11.704429467042939 19.588757528838816 30.16190493041851 0 0 0
1886 15 1 8.134479041605957 20.87973683029578 31.193064949663817 0 0 0
1887 15 1 8.707246713762915 21.728717739612716 32.29213941558721 0 0 0
1888 15 1 9.686952361736678 21.060071166646427 33.231209631834545 0 0 0
1889 15 1 9.921458624070649 21.7708046328073 34.51317597929619 0 0 0
1890 15 1 11.018676457823055 21.106826133050234 35.31583236002908 0 0 0
1891 15 1 11.649739374340893 21.993442998556738 36.45984524025316 0 0 0
1892 20 1 10.645036921528272 23.217383053380907 29.238196688020643 0 0 0
1893 20 1 11.21461975327311 24.163973640876154 30.340153050668448 0 0 0
1894 20 1 12.295646518994701 23.396110674198273 31.130339856188144 0 0 0
1895 20 1 13.239305134819034 24.257804796340757 31.93423857981056 0 0 0
6832 33 1 1.8051439011272894 3.5069268642814393 36.825052406335544 0 0 0
2337 17 1 12.547840478352327 26.22210283221267 26.23828028665345 0 -1 0
1004 11 1 15.441219728326178 14.758490022117238 35.64124921218579 0 0 0
754 7 1 16.890238676283623 8.106631976125449 43.54939119396337 0 0 0
8204 63 1 3.169681932410456 21.821302672914886 37.2976939517217 1 0 0
7087 7 1 5.444623320778281 10.15926001456772 36.43677960570274 0 0 0
2568 18 1 12.500631945369982 4.150980269658365 26.556491653414973 0 0 0
1428 23 1 5.198810225884178 17.5596941451092 28.05030993162343 1 0 1
5103 40 1 2.4776918754132446 10.290752312084653 43.41671611666761 1 0 0
2788 15 1 17.95185821941113 5.450200744702243 27.08197225099364 0 0 0
738 5 1 9.7305414993347 6.394814187659823 29.085368058804775 0 0 1
7313 58 1 2.7355548983076976 12.56785488381976 38.444123032391474 0 0 0
6793 35 1 12.261334069246596 1.533146332050495 43.10839261664617 0 0 0
752 7 1 15.06365165000798 8.110606991204925 41.90421587784247 0 0 0
2116 17 1 15.083589495417593 25.58768828907561 29.303940706157846 0 -1 0
2117 17 1 15.71154912790212 26.31692406880075 30.462446667734056 0 -1 0
2571 18 1 15.231798548547097 3.766031855366266 29.480111181028153 0 0 0
216 1 1 10.625319089677784 25.659050973662097 35.56883425062932 0 -1 1
6527 53 1 2.7442834187922207 26.12152643135088 36.87844019502117 1 -1 0
2119 17 1 17.713432167952636 26.625618898464527 32.211240610385936 0 -1 0
7989 62 1 9.787430118611915 18.689058179093742 39.92826566414838 0 0 0
1433 23 1 9.29499287933963 16.493996031671834 33.09589150719319 0 0 1
8452 53 1 0.2686177172149157 23.603348252966832 28.94694132370151 1 0 0
7992 62 1 12.202851507084565 19.620254460650923 42.76417218393675 0 0 0
7991 62 1 11.224536566599715 18.823419718720462 41.92514396145507 0 0 0
7536 6 1 4.621671302253763 14.841239713211563 32.37929132004724 0 0 0
7535 6 1 3.443641247074573 14.085175681569789 31.728978118548387 0 0 0
212 1 1 7.603830264009399 25.55449447324595 31.503430482600823 1 -1 1
6972 56 1 0.6288131670809654 8.325537447571174 34.876661555984654 1 0 0
1882 50 1 4.827425862603523 20.9301209815438 27.25037249638264 0 0 1
6834 33 1 3.1542838350635605 3.547211525865321 39.020098407347135 0 0 0
8211 63 1 8.985541032426207 21.22887155721526 44.0878650139695 0 0 0
6307 62 1 2.8133171573203333 23.048394613560443 42.14067721902052 1 0 0
3018 14 1 15.529016713346648 8.981155182416945 30.504253207283075 0 0 0
1447 9 1 17.824661901817926 19.68167410597477 38.29493666188279 0 0 0
7761 60 1 2.10051296832076 16.855993707994575 35.055045132987715 0 0 0
1438 32 1 12.85668692539906 17.54047493410499 38.315062620667526 0 0 0
300 24 1 6.322773065567455 3.520582893634335 29.4357215645366 0 0 0
3017 14 1 15.008127903658787 8.260169307383508 29.295358590953526 0 0 0
7538 6 1 5.959770100556475 15.0230652108005 34.75853235332157 0 0 0
7764 60 1 3.593702966940135 16.426405513350343 38.531686481219324 0 0 0
7319 58 1 7.7408791754287725 11.836520175056833 43.742915762509924 0 0 0
4159 19 1 15.738699780663941 22.086323330164245 30.045159352560656 0 0 1
1431 23 1 7.801750929469121 16.469665686678344 30.938973174501704 1 0 1
2560 51 1 16.6320309076832 1.6769325800378878 26.361449377652868 0 0 1
5547 63 1 3.0035303225478516 15.043710957871886 42.85890803195298 1 0 0
893 9 1 13.737035868820538 10.32342836739172 33.490938545027575 0 0 0
898 9 1 17.309062114115374 11.000262636149083 38.56148938232203 0 0 0
7765 60 1 4.828994831214208 17.1130912836384 39.1423889215011 0 0 0
894 9 1 14.558435189391526 11.235760540905035 34.40692108774459 0 0 0
1673 15 1 16.19081118011898 21.94847143799944 42.72270087352663 0 0 0
7770 60 1 8.597114490263516 16.660722480345495 44.1868441125868 0 0 0
217 1 1 11.555737365447781 26.479299894928893 36.36708779041445 0 -1 1
7314 58 1 4.188496393823823 12.79119182893884 38.97659331530292 0 0 0
7760 60 1 0.6733344107587531 16.659734236794886 34.49008201031794 0 0 0
8460 53 1 6.925935483969032 23.862405329082215 36.51279276816705 0 0 0
887 9 1 8.73418616940368 9.863987449540398 27.64220169437769 0 0 0
1430 23 1 6.628226345761636 17.16970678267916 30.15491602013443 1 0 1
313 24 1 15.732862493725584 4.345717025635317 43.215921340974404 0 0 0
1897 20 1 14.338228286864803 24.458954377895775 34.17287663007083 0 0 0
7759 60 1 0.48543555398659655 16.612154677681854 33.01486283987995 0 0 0
4160 19 1 16.92187858477317 21.42664984839267 30.762481593575703 0 0 1
7540 6 1 7.466776239155857 14.697784141476077 36.761674621597244 0 0 0
7993 62 1 12.78733064612772 18.961121375236342 43.958787737577865 0 0 0
1674 15 1 17.402998078047407 21.34343281291287 43.48558616136479 0 0 0
3020 14 1 17.38429187287823 9.040718230723817 32.27149807611757 0 0 0
3786 25 1 18.07150157175367 14.481299592280946 26.96383699089428 0 0 1
5102 40 1 1.9268579391836793 9.397330282127973 42.310921730634405 1 0 0
6836 33 1 4.972706572958667 3.470877308781334 41.11279735339302 0 0 0
312 24 1 15.388663120620764 3.7103737791747133 41.92118488963999 0 0 0
6781 35 1 3.1113956951934933 0.6739496397492841 30.995861292718757 1 0 0
3562 59 1 16.13061920220468 13.446132817716094 30.076169122980048 0 0 1
1006 11 1 17.283379979499397 14.45964457008679 37.406347809834514 0 0 0
1898 20 1 15.10978920534295 23.658510182598082 35.177160159916205 0 0 0
7766 60 1 5.176206382693148 16.473818583032475 40.509937542345995 0 0 0
7545 6 1 10.947810258681338 14.552922681581279 41.987352478808006 0 0 0
997 11 1 10.42000384407682 14.827872503859936 28.264921253635727 0 0 0
6979 56 1 5.664493551102029 7.291599225787844 42.31558168996944 0 0 0
742 6 1 12.538741495791452 6.250913585701358 33.43748762466358 0 0 0
1901 20 1 17.280137515334964 24.440382155102895 38.32143749963831 0 0 0
7086 7 1 5.064460942285677 10.608229410671566 34.99373404162623 0 0 0
8465 53 1 10.690051626965037 23.629416110828046 41.6282944308643 0 0 0
8464 53 1 10.211758376715583 24.33979948824911 40.37174421654285 0 0 0
218 49 1 12.404971843567884 25.700834884762685 37.36568691078271 0 -1 0
996 11 1 9.174284023568214 14.30586348251213 27.49776326557674 0 0 0
2114 20 1 9.323856392350285 23.22449837703643 27.09989599530957 0 0 0
8210 63 1 7.736036688342297 21.781275129585953 43.38501054766037 0 0 0
4157 19 1 14.23907022941631 21.98811208729724 28.003125729761464 0 0 1
6784 35 1 4.997448580667776 1.6537714832214507 34.233337030998726 0 0 0
7092 7 1 10.261788999900887 10.845611431956874 40.68808960712705 0 0 0
8466 53 1 11.481810151708704 24.408043925909546 42.548130163129876 0 0 0
933 45 1 16.586613021059826 12.698641018217497 43.606331690783016 0 0 0
7767 60 1 6.143153490911896 17.322351409213006 41.3017266701273 0 0 0
2561 51 1 17.996868622420816 1.2624992414113505 26.793019466698986 0 0 1
6529 53 1 4.395387663510339 26.091235091645338 38.98814207785661 1 -1 0
7983 62 1 5.045057787334363 18.574171758121203 33.74260269230064 0 0 0
1446 9 1 16.749792622556345 18.96132481182204 37.440209400045234 0 0 0
3016 14 1 13.85072762148687 8.94652375473816 28.64828005914246 0 0 0
778 7 1 7.077961257940467 8.390814763661638 30.621483814119266 0 0 0
7085 7 1 4.011205267919435 9.840434045096538 34.26706231720216 0 0 0
4161 19 1 17.22056717865943 22.106793345417287 32.10878059783761 0 0 1
743 6 1 13.952735138433892 6.0759970501983265 33.99613543642418 0 0 0
8461 53 1 7.868087211565102 23.1714350762026 37.448620565603775 0 0 0
4472 33 1 1.1048141205447621 1.3964451896197116 41.63913504580544 1 0 0
215 1 1 10.303258176420998 26.44162945091672 34.26464410648025 0 -1 1
7534 6 1 3.0254882579461193 14.937768619407475 30.483284678332893 0 0 0
2339 17 1 14.270280726341829 26.294369720144577 28.23001497581287 0 -1 0
6941 38 1 10.7191760674137 5.8726827149124246 41.780716518405896 0 0 0
8458 53 1 5.142300014349751 23.8235031614568 34.67451879965075 0 0 0
7979 62 1 1.7811249351141076 18.803698937941117 29.84399648809566 0 0 0
6748 54 1 0.2587676279479083 1.7735926069090888 28.399285986176427 1 0 1
1900 20 1 16.696654346273526 23.79014641125835 37.08605510929863 0 0 0
7091 7 1 8.967050671376409 10.202107521728255 40.11943479376622 0 0 0
753 7 1 16.125143212807462 8.944352258008788 42.57352595061781 0 0 0
7318 58 1 7.304032138859972 12.509985710243155 42.47452208946012 0 0 0
2575 18 1 18.37498080975098 3.526049808746901 33.301464218369844 0 0 0
213 1 1 8.540633851067497 26.450933612323364 32.31733287948032 1 -1 1
1660 12 1 9.37199248222444 18.554406452131765 27.183766058494687 0 0 1
4473 33 1 2.46125291696946 0.9542324483252478 42.25010990461236 1 0 0
7094 7 1 11.728666306389798 10.994769708089692 42.69144721272621 0 0 0
272 3 1 15.460637474219734 1.6134529065909131 35.2105432064526 0 0 0
1436 23 1 11.263983718680025 17.285658531677157 36.260469092588394 0 0 1
7977 62 1 0.14743506433061587 18.989170114180013 27.952133912904348 0 0 0
314 24 1 17.172776970244467 4.147804113493023 43.7351193649771 0 0 0
211 1 1 6.736265692935497 26.274370707852743 30.579499610587945 1 -1 1
6835 33 1 4.546788101391664 3.230337180541212 39.623044978601285 0 0 0
7986 62 1 7.39842909986424 19.3774668164413 36.879239758039596 0 0 0
7985 62 1 6.473659028051979 18.49970510476536 36.01372064745541 0 0 0
6533 53 1 7.487474887154214 26.35688223440767 42.951998615930606 0 -1 0
4474 33 1 2.7050185703907506 1.430829186522966 43.670668039226854 1 0 0
736 5 1 8.061342564255542 6.109845392721413 27.09279039037957 0 0 1
741 5 1 12.423174599667147 5.912830098779044 31.939755461955055 0 0 1
8467 53 1 12.34845933002693 23.576978413503873 43.53024298945316 0 0 0
7544 6 1 10.594546465667237 14.83769421582178 40.53898633131106 0 0 0
6534 53 1 8.284987422265264 25.456556127633736 43.90790004813474 0 -1 0
8457 53 1 4.942786879562174 23.244978231638346 33.29618298974407 0 0 0
5994 4 1 2.0718716527521455 18.617046668637006 42.451704420854625 1 0 0
1896 20 1 13.95964223509113 23.550097490909085 33.0584066376284 0 0 0
7539 6 1 6.186158700217385 14.2691489189439 36.04928136908631 0 0 0
7093 7 1 10.655435196422353 10.21009489182919 41.94383354769868 0 0 0
6783 35 1 4.481863322066674 0.7348877944370247 33.140882069883816 0 0 0
2570 18 1 14.217968606301065 4.342175517644653 28.471594024879924 0 0 0
4122 17 1 18.49966843508711 21.558691599202948 32.76036492243744 0 0 0
7081 7 1 1.1383931394598714 10.203258844235691 29.99387718208187 0 0 0
6786 35 1 6.56244957533962 1.8798397575201358 36.27151259964711 0 0 0
6787 35 1 7.469666097158518 1.0541048360190495 37.181507569436285 0 0 0
6788 35 1 8.219367484614054 2.0463683205505365 38.11574391943343 0 0 0
6789 35 1 9.090332985880279 1.2643218595071688 39.05919131025955 0 0 0
6790 35 1 10.002877643386645 1.9516294474307632 40.010776198784725 0 0 0
6791 35 1 10.909700368471123 1.2916475612826699 40.99675087562839 0 0 0
6792 35 1 11.498472114835051 2.2040347845011907 42.01047935549863 0 0 0
1881 50 1 3.805700599025716 21.687182042866194 26.38526055526566 0 0 1
3861 31 1 14.577789766140024 17.741551672496563 27.76977992064176 0 0 1
2572 18 1 15.846533980775146 4.655737467246565 30.473343026215453 0 0 0
7084 7 1 3.5580779482128357 10.609512094612615 33.03573492191345 0 0 0
7547 6 1 12.399308723161939 14.911062554713052 43.95076048642293 0 0 0
7310 58 1 1.1746167870699007 12.73870983909111 35.03487934894729 0 0 0
1440 32 1 14.518780607843777 17.456538217040137 40.31011232840465 0 0 0
7533 6 1 1.7952084413137324 14.406222079283737 29.79317275990417 0 0 0
274 3 1 17.120223304819888 1.791909673085235 37.17991268334022 0 0 0
7987 62 1 8.035191013757712 18.775668256569592 38.092863347872125 0 0 0
7083 7 1 2.630548123351957 9.943479309306314 31.96742308765449 0 0 0
8208 63 1 6.253592396804893 21.683606269220206 41.34987408853901 0 0 0
6940 38 1 9.943901064166935 6.609938215550674 40.75911197723064 0 0 0
8209 63 1 7.476213044526578 21.068352387479134 42.036314934396394 0 0 0
7768 60 1 7.041303097112564 16.431818529725142 42.17379191583584 0 0 0
6981 56 1 7.381670084968965 7.4208302400472235 44.34240541250932 0 0 0
8206 63 1 5.068663368467099 21.69111687159007 39.16362286163588 0 0 0
6530 53 1 4.730718426008499 25.350016046991346 40.25909618430255 1 -1 0
777 7 1 5.934384141593894 7.661960933304455 29.97015537134745 0 0 0
6785 35 1 5.951137523434465 0.9492979431177185 35.22358903562879 0 0 0
8453 53 1 1.5331731785875555 23.134983150205635 29.428999454885364 1 0 0
889 9 1 10.51334711894686 9.939776935572052 29.611101102639033 0 0 0
1427 23 1 4.751533550546338 16.92146702056258 26.756641864551383 1 0 1
6932 38 1 3.192837358450498 6.102396718113145 33.17793567275844 0 0 0
6933 38 1 4.504600927609205 5.6409512728359665 33.80321305992441 0 0 0
6934 38 1 5.045052598037852 6.251471079583756 35.10573542486133 0 0 0
6935 38 1 6.301057643241974 5.593343482626046 35.54955295206152 0 0 0
6936 38 1 6.691950251542469 6.437488554316285 36.732563672396935 0 0 0
6937 38 1 7.713297396040699 5.703205081093545 37.63188598349698 0 0 0
6938 38 1 8.077307534699363 6.3893489285827485 39.02612865840612 0 0 0
6939 38 1 9.068252269054252 5.687449553520411 39.94646186412141 0 0 0