LAMMPS data file via write_data, version 23 Jun 2022, timestep = 11112117

8487 atoms
2 atom types
8471 bonds
3 bond types
8455 angles
3 angle types
8439 dihedrals
3 dihedral types

0 36.89775039 xlo xhi
0 26.67072 ylo yhi
21.075054124105463 215.67655027586585 zlo zhi
0 6.12258679228624 0 xy xz yz

Masses

1 14
2 15

Pair Coeffs # lj/cut/omp

1 0.0914 3.95
2 0.1947 3.75

Bond Coeffs # harmonic/omp

1 449.5 1.53
2 449.5 1.53
3 449.5 1.53

Angle Coeffs # harmonic/omp

1 62.0967 114
2 62.0967 114
3 62.0967 114

Dihedral Coeffs # opls/omp

1 1.411 -0.271 3.145 0
2 1.411 -0.271 3.145 0
3 1.411 -0.271 3.145 0

Atoms # molecular

237 60 1 18.16753140234426 4.526784045298297 37.590984171347415 0 0 0
225 60 1 9.336098970548786 4.300406618910849 24.809076545564754 0 0 0
2180 3 1 3.6721831646202925 25.24076232052002 24.109349209154118 0 0 1
2804 50 1 17.803930692566347 10.164075951338715 23.382931256167232 0 0 0
1438 44 1 16.467933403177273 18.219392500420323 35.72530888078904 0 0 0
2112 53 1 13.641159965378408 24.322834336299163 37.45740361804215 0 0 0
987 6 1 9.899899451195491 11.885532839593429 32.53304580362911 0 0 0
753 8 1 14.608444950369204 9.77049794121198 32.97454790119165 0 0 0
1882 51 1 6.203216703785918 19.939282554254287 27.47689606608256 0 0 0
7081 55 1 4.149899236381784 13.880530917970413 30.95395411822281 0 0 0
671 6 1 3.4645640868912198 6.9652775588436215 22.772981508153116 0 0 0
2514 58 1 18.47063375811277 6.017242667583568 24.580577449806086 0 0 0
749 8 1 11.593322822151434 9.777002810421104 28.84529861221604 0 0 0
4112 14 1 17.456454404445342 25.963184604563036 30.40321732382712 0 0 0
6640 34 1 3.2230348872934167 8.83990173850191 29.36078913131403 0 0 0
461 6 1 13.499927191139607 7.014517122139721 37.52211313952466 0 0 0
3774 23 1 15.865197322307885 18.864465318390092 22.136194938954556 0 0 1
2479 15 1 13.344129549341396 2.5638752209776174 23.714757381869575 0 0 1
3328 20 1 16.225243828849674 14.153004903580593 21.698704786381487 0 0 1
3821 25 1 15.936369177167727 21.22290768476983 28.095433789799053 0 0 0
978 5 1 2.8568780891145193 11.38997920167948 23.482679651648425 0 0 1
2805 50 1 17.93753126737924 10.278343992084189 24.92265891875535 0 0 0
7962 64 1 2.373566651275412 20.740395044133333 34.792502304279374 1 0 1
2482 15 1 14.684061886412414 2.8038817134572676 27.41810377871807 0 0 1
226 60 1 10.160534730326669 5.167575417523899 25.773963834839606 0 0 0
227 60 1 10.61479846639366 4.544190980759523 27.082781499335532 0 0 0
228 60 1 11.452469661790671 5.332653748512908 28.10495578603876 0 0 0
7318 36 1 5.310818296315104 16.18084379215766 38.72241116499687 0 0 0
2181 3 1 4.506517152434146 24.675406121125977 25.278819896096547 0 0 1
1001 13 1 7.462250512009886 13.647112722942808 21.65056017584804 0 0 0
980 5 1 4.31936920648254 11.368210762648514 25.51796112045455 0 0 1
1009 13 1 13.501681807696468 14.071769913769689 29.989546723844125 0 0 0
3543 22 1 11.40090248920549 16.492200625955192 22.082123360723983 0 0 1
976 5 1 1.230068047320106 11.317491684252179 21.339187696052843 1 0 1
6181 48 1 9.359037895371557 5.098532041714036 37.28146282161741 1 0 0
6850 61 1 2.859299316028082 10.673328532180298 35.95694007069997 1 0 1
6409 31 1 2.1799315924970064 7.041432997788455 33.711840563699894 1 0 0
2265 12 1 14.9939424635994 0.2318590202743401 33.34926271693297 0 1 0
5983 46 1 6.3010848754330775 3.3121093127966725 39.39167368575476 0 0 0
2569 16 1 12.081488909842987 6.545969187046282 23.117120137119784 0 0 0
745 8 1 8.523522155381198 9.644183173916993 24.65068851010689 0 0 0
449 6 1 4.88566256644641 7.042064910476596 24.933542918559567 0 0 0
450 6 1 5.251598150266856 7.769372962667449 26.196545386042477 0 0 0
451 6 1 6.353327581426363 7.072049558165114 26.999242224652292 0 0 0
452 6 1 6.861327828987512 7.876016162482581 28.259251871513992 0 0 0
453 6 1 7.70754366253156 6.985765953376136 29.11676623048477 0 0 0
454 6 1 8.208279325387183 7.560307212406078 30.436767679663973 0 0 0
455 6 1 9.39150981208704 6.84827883338439 31.107163868305747 0 0 0
6413 31 1 5.038504591201431 7.074743312807345 37.90392548953194 0 0 0
2904 18 1 14.90139102619265 11.625780633928736 26.976619573430035 0 0 0
232 60 1 14.36280523964413 5.735953970534325 32.36852939032543 0 0 0
2477 15 1 11.703944904271442 2.0013678943274176 21.624238223501163 0 0 1
1000 13 1 5.97251115910895 13.404476091286835 21.31111586842982 0 0 0
4108 14 1 14.762436284854154 25.667283093328155 25.822094509932374 0 0 0
3877 10 1 13.569430831330244 20.797226444040792 23.70105700389202 0 0 1
769 6 1 14.439466517046604 11.913428491681234 38.684861478734994 0 0 0
4105 14 1 12.098366143128846 24.445448252439864 23.1277930761779 0 0 0
6849 61 1 2.0451118857430743 11.564039738371457 35.05730259761049 1 0 1
3776 23 1 17.404295593948696 19.209207708587012 24.032745525581806 0 0 1
3878 10 1 13.72621146111759 20.173097013171446 25.095536216283705 0 0 1
1652 17 1 9.314373141205339 17.668964252018373 25.047821603794272 0 0 1
1013 13 1 16.41077233901379 14.086235195805612 34.37824599422181 0 0 0
7965 64 1 4.997661725059752 20.37696964181097 37.516391674716104 1 0 1
758 8 1 18.53735690111396 9.372406783425644 38.08198960922945 0 0 0
190 2 1 6.127809589751839 2.63816134758887 27.417152340830405 1 0 1
2486 15 1 17.604715872219302 3.120769198298758 31.49746819687365 0 0 1
7998 62 1 6.52866498571821 23.067848170585403 34.003598738517354 0 0 0
742 8 1 7.098159859365287 8.969392411933299 21.134484560210677 0 0 0
1667 51 1 12.54734293033031 20.491532497067826 37.15317566574714 0 0 0
2576 16 1 17.65634420239327 7.544051989203757 29.868885466657808 0 0 0
2210 7 1 6.74100257315729 0.43352565047180114 22.18092357598157 0 1 1
1879 51 1 3.688102116646639 20.5920898255284 24.749912745740076 0 0 0
1880 51 1 4.951799043181881 19.99780579222582 25.377138477827508 0 0 0
6408 31 1 0.706082990737702 6.8693753805953435 33.180690577489024 1 0 0
193 2 1 8.430405098524487 3.3053132945734833 30.567315836205253 1 0 1
6397 4 1 3.3956716422423385 5.1673623606250825 29.198712608784952 1 0 1
1216 48 1 1.5925756015469912 15.266792224048098 21.85888687790853 0 0 0
8307 1 1 4.451990403417625 0.5708562452478156 31.82603237495825 0 1 0
7077 55 1 1.3373653742894631 13.540190462208344 26.77885169603563 1 0 0
4111 14 1 16.78080067258603 25.162313406016455 29.28472237914186 0 0 0
5980 46 1 3.288622985930345 2.431600366788875 37.01051023286777 0 0 0
447 60 1 7.652382536125332 4.050746571422944 22.771841822283562 0 0 0
765 6 1 11.393642996369735 11.626393438424405 34.46548167611965 0 0 0
766 6 1 11.588358576132077 11.579533832483587 35.933876545742244 0 0 0
767 6 1 12.999841721546504 11.59919682105944 36.60695431405895 0 0 0
768 6 1 13.01950743597897 11.708637077912975 38.093775576528216 0 0 0
4113 14 1 18.295474659648356 25.10816467186265 31.366191113187583 0 0 0
8214 63 1 5.197060449207811 24.86943100671082 37.546231154384785 0 0 0
7078 55 1 1.8179230616842492 12.795551075544719 27.99749322835107 1 0 0
977 5 1 2.6584761247435744 11.496032458326578 21.95477070452511 1 0 1
748 8 1 11.590736894695157 9.390802848602778 27.375212600062856 0 0 0
7964 64 1 3.5544835934175545 20.528538476660206 37.0071283833295 1 0 1
2211 7 1 7.905574184661508 26.34419754718864 22.906411418519223 0 0 1
1651 17 1 8.783414981411077 18.37711507286828 23.802239726114895 0 0 1
191 2 1 7.099116425940926 3.3616573244709818 28.358885706940608 1 0 1
7316 36 1 3.6796907242171946 16.31548781973404 36.87654723180615 0 0 0
1007 13 1 11.908795915227657 14.09096588185524 27.890422120752724 0 0 0
1217 48 1 2.8934965240890453 16.027924195839997 22.295264509067596 0 0 0
1232 48 1 13.60172397114015 15.457560974974626 38.18590872587748 0 0 0
4109 14 1 15.26428706259853 25.033593254040976 27.12367457311574 0 0 0
7995 62 1 3.814973256951519 22.480404973239267 31.289951127323583 0 0 0
2572 16 1 14.656189125067572 7.496920204842152 25.690408189410476 0 0 0
1002 13 1 7.666570947960386 13.365148124160429 23.12549635787112 0 0 0
192 2 1 7.6628704795765215 2.477958559759921 29.46308072580679 1 0 1
988 6 1 9.962351444422543 11.968348865368764 34.05928248373674 0 0 0
7961 64 1 2.0170146961809143 19.951055312981467 33.51183433248196 1 0 1
7087 55 1 8.548493651667744 14.047226213114884 37.41087528731096 0 0 0
7314 36 1 2.6675538338436233 16.12985766018574 34.603147954483475 0 0 0
1008 13 1 12.11640101319756 13.874486492663994 29.407146196231707 0 0 0
985 6 1 8.467372480101453 11.886755161971797 30.428343599532745 0 0 0
1661 51 1 8.305313976564172 20.67202219327382 30.62756231334825 0 0 0
8304 1 1 3.11825127601625 0.4548146574691362 28.20235085439801 0 1 0
6179 4 1 7.748109820572833 5.311435284680993 35.37485431926726 1 0 1
2478 15 1 11.919185721748216 2.396436362483587 23.13755187800558 0 0 1
983 6 1 6.903021393267746 11.658800979571861 28.35461929233344 0 0 0
2213 7 1 9.420542954390818 26.58133382547931 25.085909624918543 0 0 1
1654 17 1 10.980916619665127 17.698295214340874 27.12113504635434 0 0 1
982 6 1 5.548875036537675 11.405897706350741 27.816739615158937 0 0 0
7523 56 1 1.3613550958121876 17.756381250284715 25.884368479420942 1 0 1
4328 14 1 11.74377261458647 24.940059173187084 21.726475850509143 0 0 0
2179 3 1 3.1181928613728096 24.21937051850214 23.109937497720544 0 0 1
1225 48 1 8.875392412750312 16.42000283910687 30.68368992217909 0 0 0
3879 10 1 14.572937971275916 21.066853937393432 25.929670240677847 0 0 1
1898 11 1 13.80407513747354 22.671636353791303 32.12685789569052 0 0 0
7991 62 1 0.9180589183960313 22.383780527053407 26.94130596119377 0 0 0
7083 55 1 5.653991210362823 14.124580726092645 33.11628230166259 0 0 0
7798 1 1 9.992235237378736 1.2026336363474972 38.71690426126134 0 1 0
6174 4 1 3.4473025267501454 4.67551740790182 30.634688222780934 1 0 1
6415 31 1 6.610481475672238 7.202800988929555 39.90112250072867 0 0 0
5975 46 1 0.7075437183883082 2.485603615679609 31.292598205572023 0 0 0
1220 48 1 5.147580509530798 15.534025433991909 25.640106585571388 0 0 0
1221 48 1 6.03828725131718 16.326884263649067 26.576485810147748 0 0 0
1659 44 1 14.321705995391703 18.864887734872774 32.56813438091509 0 0 0
6638 34 1 1.9027703646498821 8.860071139019022 27.298689542807725 0 0 0
1888 11 1 6.233913079637935 21.924573590630242 21.847442874446624 0 0 0
3550 22 1 17.03783817999759 16.103940904840798 28.908015971436427 0 0 1
3548 22 1 15.753195954278718 16.1954624872558 26.808219153746656 0 0 1
6414 31 1 5.1792304677236904 7.375336606787917 39.354636299695684 0 0 0
1899 11 1 15.069764699350026 23.27996418793533 32.7366971786559 0 0 0
2178 3 1 2.2331592704927354 24.908798575092074 22.12575646843535 1 0 1
3880 10 1 14.80772306551859 20.500822320053953 27.31993023103142 0 0 1
6639 34 1 2.05669080326988 9.439322474706021 28.70108028147367 0 0 0
2214 7 1 9.702635397630726 0.8362591552952637 26.246037722406513 0 1 1
1016 13 1 17.94263332687227 13.884446852535973 38.06075331019548 0 0 0
2182 3 1 5.400739254519497 25.653534100690965 25.977937751689346 0 0 1
1903 11 1 18.14228669708575 22.80012591753439 36.84447295641667 0 0 0
202 2 1 15.1905424818035 2.4692909863119152 39.77310596814053 1 0 1
2906 18 1 16.46601720070306 11.483959408374764 29.015103210472184 0 0 0
2215 7 1 10.4394698245608 0.13136611199640336 27.35369114306081 0 1 1
2481 15 1 14.711944496881369 2.9802467480693413 25.849166139334198 0 0 1
3876 10 1 12.429362252626095 20.088941758835833 22.9013814757281 0 0 1
1650 17 1 7.699787389038272 17.70322525201012 22.99581847240556 0 0 1
7963 64 1 3.6231084923059558 20.288213297672307 35.523969735270704 1 0 1
8301 1 1 0.15738304861038194 0.04674727996797684 25.597659481950217 0 1 0
1896 11 1 12.396620692682458 22.561346583858647 30.0318459963963 0 0 0
7742 64 1 5.069206010696873 20.655345859728723 39.057499866635965 1 0 1
2480 15 1 13.387158387912224 2.610161740396551 25.218073596547654 0 0 1
2899 18 1 11.555018514314854 11.85388884886955 21.585940968793896 0 0 0
1439 44 1 17.737058473293533 18.780366895707555 36.45795395124503 0 0 0
1656 44 1 12.388158039831545 17.816604136419226 29.24859433621552 0 0 0
1657 44 1 13.118217521101935 18.71706627798152 30.255149736262823 0 0 0
1889 11 1 7.211799643714603 22.732454301863125 22.629113632625472 0 0 0
6395 4 1 2.0691973513734117 5.2261783410412725 27.02001558807251 1 0 1
7992 62 1 2.1051505085159787 23.051779678330142 27.744949548350064 0 0 0
3897 28 1 18.360740282025453 22.998123982392173 24.353801335418638 0 0 0
4106 14 1 13.242533341049317 25.26158029955124 23.71448043454281 0 0 0
6853 54 1 4.6935598816354425 11.866212548268646 39.2264368326685 1 0 0
7993 62 1 2.4531021656849257 22.65213240254377 29.139469671782592 0 0 0
7524 56 1 1.7568387575190056 17.40779280016585 27.30849960824679 1 0 1
2212 7 1 8.45449716139025 0.5104761184662778 24.069362468106846 0 1 1
979 5 1 4.269878143744174 11.633742607855392 23.991888905227157 0 0 1
7317 36 1 4.134785164135892 15.470893024811005 38.08338534234033 0 0 0
2220 12 1 18.350486877541485 0.023848795908200025 37.24803314616284 0 1 0
448 60 1 8.832146581978485 4.827541394261168 23.451168476498193 0 0 0
196 2 1 10.647425056982511 2.3303119480021444 33.67940202944739 1 0 1
3329 20 1 16.589768501637117 13.590363742491597 23.06295016726532 0 0 1
750 8 1 12.975319017764736 9.719164784643423 29.466441540266096 0 0 0
2109 53 1 11.281801321683185 25.205095158554585 34.514217483390574 0 0 0
8213 63 1 4.029362146036358 25.547476980199715 36.82028804599843 0 0 0
751 8 1 13.051743993875672 9.660427019041132 30.97780284014692 0 0 0
6183 48 1 10.816275375513385 5.703149901092054 39.31988024582378 1 0 0
229 60 1 11.98242926965378 4.669946114969358 29.39934174107107 0 0 0
1223 48 1 7.254914280364007 16.289888297103623 28.72229244193018 0 0 0
986 6 1 8.50708034041521 11.612748600618104 31.92150276884524 0 0 0
3545 22 1 12.932860185070476 16.51641061969017 24.007161838370614 0 0 1
8215 63 1 5.607430649136499 25.62926350890603 38.82595388713074 0 0 0
1890 11 1 7.299653408254962 22.38975420232397 24.101047285839357 0 0 0
1663 51 1 10.021458738904009 20.700930867875464 32.58888304625208 0 0 0
2513 58 1 17.569628985740998 5.065226718802884 23.77147544486921 0 0 0
1669 51 1 14.124734201122834 20.688252136375556 39.074275336320426 0 0 0
6852 54 1 4.391976593838636 10.882236537223395 38.1470284503244 1 0 0
984 6 1 7.120852993155903 11.551969865075955 29.901296080631795 0 0 0
752 8 1 14.368946820558131 9.233092325125172 31.558564343872412 0 0 0
2511 58 1 16.14972174094276 4.833833747349549 21.558728848753383 0 0 0
1440 44 1 18.41008381374401 17.920614301440796 37.53829373984766 0 0 0
2574 16 1 15.863122694425726 7.575939509588613 27.942694125711313 0 0 0
1894 11 1 10.53427820441286 22.705398307100655 28.252586409155256 0 0 0
1895 11 1 11.948133524943902 23.151510425598342 28.65196633290263 0 0 0
7525 57 1 2.7202983437569603 18.4049380868292 27.98192989044302 1 0 0
3549 22 1 15.704870069466535 16.537347904534162 28.26907384456643 0 0 1
2902 18 1 13.436255928574028 11.50319393903056 24.85898546615625 0 0 0
1658 44 1 13.397686063115735 18.032085337311266 31.63183597556076 0 0 0
3895 28 1 17.21361931115941 22.91776077082832 22.11991900103416 0 0 0
5253 1 1 8.390733999622304 1.0177539395748632 36.70226136016633 0 1 0
1229 48 1 11.725989537082976 16.39971164384127 34.9735058423487 0 0 0
7319 36 1 5.871980026305571 15.430765183607772 39.9436443179705 0 0 0
8091 1 1 6.269474725205685 0.053216499093178195 33.60775601258116 0 1 0
8003 62 1 10.009028951558754 22.531096419203333 39.46940189140122 0 0 0
7527 57 1 4.008332511665037 18.739437680934035 30.185279146957065 1 0 0
2484 15 1 16.20892958162882 2.670400927357429 29.46630866403244 0 0 1
6637 34 1 0.5658181257574137 9.041913648671061 26.567679134462445 0 0 0
188 2 1 4.865699897329703 2.623906066034329 25.203464639498613 1 0 1
2802 50 1 16.238250767325564 9.759650334478053 21.47656943830354 0 0 0
754 8 1 15.809331183225746 9.262770551851727 33.81740377988689 0 0 0
1893 11 1 10.231956297252996 23.012399854573832 26.761070107425404 0 0 0
231 60 1 13.458090217057432 4.926255057897684 31.425372365553326 0 0 0
2110 53 1 12.16088123842012 24.297618124383117 35.43728008827088 0 0 0
7531 57 1 6.941381878617682 18.539183965819312 34.36057456274385 0 0 0
6410 31 1 2.1873139684633203 6.964442997709343 35.24260775346075 1 0 0
7530 57 1 5.926233065555838 17.806913141638557 33.559568343944456 0 0 0
201 2 1 14.47262786184381 3.3814333974595403 38.7608428968922 1 0 1
2139 53 1 6.011865594524955 24.893948961436642 27.216988564395496 0 0 0
2140 53 1 6.902956365163463 25.73224423941362 28.190280070104112 0 0 0
2141 53 1 7.314113273338464 24.80375961043274 29.378757172389378 0 0 0
2142 53 1 8.343798331047946 25.437838271108465 30.29451939307846 0 0 0
2143 53 1 8.920036467353047 24.54146094624545 31.39149993622111 0 0 0
2144 53 1 9.80899494852957 25.396577072514653 32.37556008853911 0 0 0
2145 53 1 10.45820656594305 24.500080127097785 33.43503591948285 0 0 0
757 8 1 17.531778487476675 10.153035904704169 37.25994767680885 0 0 0
197 2 1 11.530778059457056 3.2210921040861944 34.527461388527435 1 0 1
198 2 1 12.195989899679196 2.475669275202758 35.75166780554884 1 0 1
2901 18 1 12.869000921421694 12.17690678187146 23.62348526356671 0 0 0
1664 51 1 11.103972758942144 20.081657144863208 33.545243926272256 0 0 0
1655 17 1 11.66915689049042 18.640847598502102 28.102241012468014 0 0 1
2483 15 1 16.122445745985857 2.9136187427602454 27.970681076951358 0 0 1
5977 46 1 1.8890118677331738 2.6546586902119405 33.49500273874985 0 0 0
1219 48 1 4.631515444621152 16.21413795240261 24.357414095317868 0 0 0
8001 62 1 8.589691926770001 22.51981698660732 37.32214615828079 0 0 0
1230 48 1 12.04550520549848 15.544486887710255 36.25120422229267 0 0 0
1670 51 1 15.3976852658439 20.119108666801893 39.67758691143911 0 0 0
7529 57 1 5.366070065053162 18.674000767790826 32.396679958007304 0 0 0
8216 63 1 6.464003643571378 24.75017396306091 39.73738095935798 0 0 0
3330 20 1 17.83898486002697 14.210240801057253 23.53789528584213 0 0 1
2266 12 1 15.514970982539744 0.9396202753796474 34.61636518243824 0 1 0
2267 12 1 16.49930889012104 0.11624473289529963 35.30682855192197 0 1 0
6649 34 1 9.37066597507109 9.657807503370805 39.22957331616037 0 0 0
8002 62 1 9.604393583915723 23.256912965815687 38.22813131579782 0 0 0
3787 25 1 17.60476084521229 20.45868414645809 31.549309855317706 0 0 0
1653 17 1 10.371714161455143 18.46222827812495 25.929518643010937 0 0 1
8103 1 1 9.36012466627325 0.32912382931749445 37.67912972428756 0 1 0
1649 17 1 7.009607881767892 18.417640345132167 21.845295464669984 0 0 1
7536 57 1 10.581796078861114 18.071574845002843 39.37005178219916 0 0 0
2111 53 1 12.761827353629203 25.141190493780144 36.482802846034616 0 0 0
746 8 1 9.96136488701591 9.344090348815168 25.263430732581483 0 0 0
1228 48 1 10.901530574648842 15.633032655676457 33.94977313582434 0 0 0
3823 25 1 17.498261182152 20.87389852629363 30.07511555839115 0 0 0
1269 1 1 11.034595375134932 0.4786640857757373 39.58122974270802 0 1 0
7086 55 1 7.489392239290066 13.258092102100242 36.5958063929471 0 0 0
7535 57 1 9.508323321916752 18.7719136171234 38.62506252687912 0 0 0
1437 44 1 16.042469317908687 18.93699041565244 34.39408454856142 0 0 0
6180 4 1 8.016080872321053 4.675127206207765 36.750616280544904 1 0 1
3822 25 1 16.272721104906502 20.405845487883223 29.388055211383094 0 0 0
3896 28 1 17.26905193196682 23.60965251087962 23.509525628926582 0 0 0
3546 22 1 14.206516296376027 16.065557287809767 24.703420001216777 0 0 1
186 2 1 3.4206828283896313 2.815358864309834 22.97058300012474 1 0 1
2113 53 1 14.719027213346008 25.165607073175927 38.08261901403978 0 0 0
7857 1 1 7.731152587979409 0.16084070032605616 35.633678358775555 0 1 0
5893 44 1 0.6704764609007269 1.037377152348917 39.31113654652286 1 1 0
8209 63 1 1.1006737632367352 25.32881346215306 32.695666933514495 0 0 0
7084 55 1 5.854506510180217 13.568940194058444 34.53716348133534 0 0 0
1218 48 1 3.5259685132432574 15.445279461471035 23.613268471003963 0 0 0
2573 16 1 14.891193048939241 6.81973356473358 27.06198952961675 0 0 0
2217 7 1 12.123328027546066 0.2861274486327349 29.163113863471228 0 1 1
7088 55 1 9.204609235658163 13.39497328955372 38.66801271089763 0 0 0
5141 39 1 1.0519426776365315 18.146767375228237 39.82810316891365 1 0 0
1876 49 1 2.067255249464935 19.399773706798072 21.41626773970815 0 0 1
189 2 1 5.791882170721732 3.404562212447255 26.161873515016723 1 0 1
456 6 1 9.863903956819776 7.631138950029979 32.37351057470171 0 0 0
7315 36 1 2.628888963466941 15.569060829014502 36.06725335127931 0 0 0
1660 44 1 14.912515640725976 18.145212066002824 33.70999925460614 0 0 0
6650 34 1 10.497836262270505 9.10919314028682 40.108690133616065 0 0 0
1900 11 1 15.277617922078129 22.665881436126092 34.095763342950015 0 0 0
2512 58 1 17.056568694540204 5.679097658693821 22.47528895268855 0 0 0
6176 4 1 4.961855409172588 4.863747496343581 32.739651106412076 1 0 1
6848 61 1 1.3886780167127388 10.720815934219516 33.965878921655246 1 0 1
2908 18 1 17.81021831662921 11.54866778098589 31.056663594576207 0 0 0
1892 11 1 8.882518557282413 22.471720050086525 26.157897049210174 0 0 0
1014 13 1 16.506671060003498 13.851847570411868 35.931794476044985 0 0 0
3775 23 1 17.100637132242763 18.436394458045644 22.77355175556081 0 0 1
457 6 1 11.017046284098953 7.065406219527371 33.15121372214297 0 0 0
2900 18 1 12.237674229807647 11.108126781767835 22.690250992274667 0 0 0
185 2 1 2.3532268569957533 3.5410512731005697 22.09888985912083 1 0 1
7533 57 1 8.089274561040288 18.789835376968337 36.51693521377098 0 0 0
2905 18 1 16.128127035390815 12.20509898487223 27.696813636886596 0 0 0
2571 16 1 13.387403708462587 6.8908083394985695 25.21194512300339 0 0 0
7080 55 1 3.3505175582541087 12.921527173738763 30.050462032198947 1 0 0
8000 62 1 8.199496428954829 23.247219908584178 36.05346835597112 0 0 0
7990 62 1 0.5672649332586187 23.048543841134467 25.633480067592263 0 0 0
4110 14 1 15.975361728534347 25.884581062605044 28.20439835958496 0 0 0
5979 46 1 3.2160758251795643 2.5311529454070563 35.49544159363758 0 0 0
981 5 1 5.6241934138628285 11.635231593021167 26.295526365681425 0 0 1
1665 51 1 11.23706616035554 20.781774212301432 34.93479913620841 0 0 0
672 6 1 4.009344955444415 7.788528797386494 23.96411547347979 0 0 0
1883 51 1 6.827245517264669 20.82981487674617 28.5432323639492 0 0 0
7528 57 1 4.346681263090856 18.059930575261856 31.49071153806883 1 0 0
2907 18 1 17.670055543695238 12.189069042407535 29.704838881281532 0 0 0
8210 63 1 1.9423278673328854 24.56809813504349 33.64184527772096 0 0 0
7526 57 1 3.0793049083104527 17.830216739396118 29.39341485077275 1 0 0
235 60 1 16.542313783431027 4.75171582948798 35.45457135457123 0 0 0
5449 57 1 2.490207303171014 23.001704123938083 39.63913876351714 0 0 0
7997 62 1 5.480415269083007 22.206423042620635 33.322336736446985 0 0 0
459 6 1 12.555095479110726 7.4268516032389424 35.25397697343461 0 0 0
1226 48 1 9.331277352892657 15.71382537671953 31.97350155731848 0 0 0
1011 13 1 14.812589955934367 14.287161389650624 32.25942718533294 0 0 0
3665 1 1 5.850726504993222 0.9099633449825315 32.33865718159417 0 1 0
3547 22 1 14.367362535268656 16.505954749711734 26.074534666352918 0 0 1
756 8 1 16.914869125958344 9.32150066680786 36.152921683043274 0 0 0
1012 13 1 15.040025798583015 13.820576056847226 33.72133396375629 0 0 0
3551 22 1 17.28510362388985 16.52036949437864 30.356657713845948 0 0 1
230 60 1 12.741463038998022 5.699367369276641 30.287416926218533 0 0 0
1010 13 1 13.573061418489711 13.801259507497795 31.52198241579 0 0 0
6646 34 1 7.807396084437735 9.29533760711929 35.47315186720106 0 0 0
1003 13 1 9.091460460952982 13.674102027574994 23.714783342796412 0 0 0
3875 10 1 11.776778616015617 20.906250385776364 21.754004405684526 0 0 1
7313 36 1 1.402016447550707 15.650137194618125 33.93179861561515 0 0 0
7082 55 1 4.629402688792406 13.321266963297596 32.311784779157655 0 0 0
4661 54 1 1.5567301691170314 9.011655016172426 40.0993077840598 0 0 0
6178 4 1 6.42515505308052 4.837171704250051 34.724421552407385 1 0 1
7089 55 1 10.214563553876417 14.20281467683931 39.52155278435499 0 0 0
1881 51 1 5.263039682363175 20.775152077138248 26.65413743393657 0 0 0
8306 1 1 4.466271124315615 0.7338651608657659 30.29547348704476 0 1 0
6177 4 1 6.41577577329778 5.0247973335241145 33.23432400970573 1 0 1
1224 48 1 7.803593357761704 15.559282524897608 29.91914304243654 0 0 0
1891 11 1 8.580876503033192 22.850329927633677 24.63432046753942 0 0 0
1227 48 1 10.369920378151322 16.401800030536794 32.78672803743869 0 0 0
7534 57 1 8.993323806655052 17.98835389633505 37.492741646157015 0 0 0
7907 1 1 6.893963456037317 0.9531926145221915 34.61332581558287 0 1 0
8305 1 1 3.129624750933244 0.29451778739864476 29.719752373858007 0 1 0
2219 7 1 13.639111727669139 0.11157723953059229 31.178619500691987 0 1 1
6647 34 1 7.954591732088043 9.520432944789988 36.989474171261705 0 0 0
8004 62 1 11.116332936123975 23.118887014224455 40.2630670642844 0 0 0
5981 46 1 4.722105051553188 2.52398797145962 37.54798143408148 0 0 0
3331 20 1 18.381566092189235 13.695977527930886 24.865666746255826 0 0 1
1878 51 1 3.2961590493043524 19.828197366377807 23.472120465156138 0 0 0
1231 48 1 13.373112743269969 16.023745055200752 36.80282769334321 0 0 0
446 60 1 6.908188885361612 5.025430627720957 21.916122709795957 0 0 0
1902 11 1 16.83190182026561 22.350897001611514 36.179597616146964 0 0 0
755 8 1 15.911107631047177 9.936452703502809 35.19735312454627 0 0 0
2803 50 1 16.364518284728266 9.784243825852938 22.966489076428356 0 0 0
2216 7 1 11.092987480505052 1.0803849481415189 28.38988614614451 0 1 1
458 6 1 11.275558736274142 7.862100254158149 34.47738666478941 0 0 0
6175 4 1 4.838243262797308 4.910130393719158 31.259880715441334 1 0 1
463 6 1 15.18094804389791 6.973928657030514 39.441294358100436 0 0 0
200 2 1 13.596284553135169 2.624897041062144 37.77804866779657 1 0 1
2268 12 1 16.997668064683644 0.5524479590932602 36.719729802504794 0 1 0
4509 31 1 1.1134190307591325 4.625226680384646 39.94217173436832 1 0 0
670 6 1 2.6101700422773715 7.714767979447058 21.677627272937244 0 0 0
6854 54 1 5.427841682274398 11.209082950338752 40.39147616080737 1 0 0
1006 13 1 10.498109690828374 13.703587226760286 27.433466958381388 0 0 0
4415 30 1 18.003576188844157 0.6512634795601807 23.636287115156613 0 1 1
4107 14 1 13.648174599809096 24.863124108483454 25.132047144516793 0 0 0
2575 16 1 16.574607365773485 6.770536939798329 29.05984144171589 0 0 0
7994 62 1 3.641973597910833 23.224704430475118 29.954284952994342 0 0 0
6645 34 1 6.5083017977673805 9.815696476928974 34.85564079401546 0 0 0
194 2 1 9.166065364086034 2.4436855064314438 31.534477121176735 1 0 1
7079 55 1 2.665020482059764 13.692997034688279 28.937801312249654 1 0 0
4414 30 1 16.85694224343757 1.1105853918586026 22.726699015654642 0 1 1
7999 62 1 7.10092867228659 22.433339388107388 35.341830261408916 0 0 0
8303 1 1 1.750908805792585 0.12205431291745206 27.634185674340255 0 1 0
1015 13 1 17.748844226369993 14.378912372522135 36.625933865364004 0 0 0
1666 51 1 12.185066661753732 19.933469519208288 35.81388713704317 0 0 0
6648 34 1 9.176610708265354 9.027370957928877 37.84014067650901 0 0 0
6396 4 1 2.1216749629063005 4.815969732642571 28.463126241172333 1 0 1
6644 34 1 6.403763420190743 9.309619149214814 33.43889347086181 0 0 0
460 6 1 12.606788690254765 7.892940998664419 36.6899115708928 0 0 0
2221 12 1 18.623407355887352 0.5462206063721046 38.647282990589375 0 1 0
236 60 1 17.599199209836573 5.3847967997002035 36.41714756554472 0 0 0
234 60 1 15.913111085016816 5.717168093892445 34.43034773229114 0 0 0
2114 53 1 15.369345505254314 24.46740438531427 39.2912752067396 0 0 0
233 60 1 14.910590886521906 4.97345664487399 33.518348703094084 0 0 0
8212 63 1 3.313738253364736 24.698030408894365 35.795830204764655 0 0 0
184 2 1 1.600371146502651 2.5009523639317686 21.216772461975467 1 0 1
1005 13 1 10.40803101206707 14.070151395189194 25.896794830458806 0 0 0
6851 54 1 3.4669755167032204 11.54773504764142 37.08722647224542 1 0 0
6394 4 1 0.83789260719518 4.732683189490832 26.25032537752614 1 0 1
1884 51 1 7.955713718446021 20.063885323024575 29.25391078847185 0 0 0
6412 31 1 3.6212549163817918 7.124972544943834 37.4149505997538 1 0 0
7085 55 1 6.958734797960694 14.183621986462278 35.4061917005324 0 0 0
3544 22 1 12.709297420234849 15.98584336180024 22.69134440154115 0 0 1
2218 7 1 12.775935591789423 1.0220408337457738 30.297501222878353 0 1 1
195 2 1 10.033923297577383 3.2484696532990975 32.57191436747589 1 0 1
6411 31 1 3.5719020009605953 7.063333576672865 35.90893170218279 1 0 0
7532 57 1 7.339626109983335 17.80434161354574 35.624269378183385 0 0 0
2903 18 1 14.523361920722085 12.302548547813934 25.656398930461428 0 0 0
1901 11 1 16.615129056315048 22.898612131692854 34.75898107602684 0 0 0
199 2 1 12.84379151073829 3.42749478261204 36.68475706529037 1 0 1
744 8 1 8.4479251329236 9.235076130591375 23.209030511486414 0 0 0
1668 51 1 13.851570661453763 20.046990591704557 37.66496484814462 0 0 0
8302 1 1 1.3444830402676478 0.7517726720472001 26.287608051888576 0 1 0
1897 11 1 13.668555136150728 23.164615914226694 30.71598942524038 0 0 0
5982 46 1 4.82083421387183 3.004816091473646 38.96065408243122 0 0 0
2568 16 1 11.749770133980777 7.074173272381267 21.66238065930756 0 0 0
743 8 1 7.145091360267242 9.502175326648535 22.54494615245359 0 0 0
7996 62 1 5.117374718862278 22.856127845067224 31.999910331449012 0 0 0
2485 15 1 17.595123662139983 2.934661382289187 30.008558435918758 0 0 1
1004 13 1 9.127571043395834 13.51778415907039 25.245041306496987 0 0 0
1877 49 1 2.172053258553262 20.324479858442533 22.617859975711752 0 0 1
187 2 1 4.0779403546283195 3.4584559429055783 24.203443626926294 1 0 1
7076 37 1 0.2946967085918082 12.859324841427462 25.941878091838376 1 0 1
8211 63 1 2.4745843449937146 25.417822671067725 34.75564648078042 0 0 0
2264 12 1 14.19117677472815 0.9359275302287667 32.34012539682756 0 1 0
2570 16 1 13.139348167117138 7.452054581634629 23.821125391121843 0 0 0
462 6 1 14.037169893586405 7.679219233380192 38.739612245697096 0 0 0