LAMMPS data file via write_data, version 23 Jun 2022, timestep = 1000000

9706 atoms
2 atom types
9690 bonds
3 bond types
9674 angles
3 angle types
9658 dihedrals
3 dihedral types

0 36.89775039 xlo xhi
0 26.67072 ylo yhi
0 236.7516044 zlo zhi
0 7.448720975 0 xy xz yz

Masses

1 14
2 15

Pair Coeffs # lj/cut/omp

1 0.0914 3.95
2 0.1947 3.75

Bond Coeffs # harmonic/omp

1 449.5 1.53
2 449.5 1.53
3 449.5 1.53

Angle Coeffs # harmonic/omp

1 62.0967 114
2 62.0967 114
3 62.0967 114

Dihedral Coeffs # opls/omp

1 1.411 -0.271 3.145 0
2 1.411 -0.271 3.145 0
3 1.411 -0.271 3.145 0

Atoms # molecular

1 3 1 6.883879909973542 0.513993714774504 8.81979571634901 0 0 0
2 3 1 8.215906585543467 0.6684315846103784 9.552879236283808 0 0 0
3 3 1 8.007046536513034 0.5484106879591382 11.043822846784426 0 0 0
4 3 1 9.170792251083682 0.9746865506066039 11.867851005417737 0 0 0
5 3 1 8.78538765273409 0.8308149263690494 13.357679550111538 0 0 0
6 3 1 9.959919324821085 0.9537956498486903 14.29248192649306 0 0 0
7 3 1 9.687304059419134 0.7784030131001507 15.779921489627611 0 0 0
8 3 1 10.91647472067123 1.1003224328966972 16.587479749803475 0 0 0
9 3 1 10.904560776190085 0.9332267541748611 18.103381295305546 0 0 0
10 3 1 12.191189331542585 1.1206785095593919 18.917647805583297 0 0 0
11 3 1 12.097235040803861 1.0024400692564692 20.41490996566788 0 0 0
2720 20 1 17.295107814610716 3.007755019068854 2.8478251071824228 0 0 0
4532 32 1 16.072406772526623 20.70745726712815 0.8751857376736314 0 0 1
379 36 1 9.473222944195264 3.842506448167007 4.652676056758181 0 0 0
618 59 1 16.816121129626204 7.139159030037263 18.695198609924038 0 0 0
7300 63 1 0.6880595144634338 1.1653020045492979 13.5714005167625 0 0 0
2323 15 1 2.907754221523353 23.717338974535306 0.3814857393310152 0 0 1
4093 31 1 18.79133509137568 18.98132309765956 12.464635590546159 0 0 0
220 3 1 4.267995824241009 1.2190118322253385 2.9950889771250124 0 0 0
221 3 1 4.395963628691444 0.5939635908095716 4.402718873273749 0 0 0
222 3 1 5.698170788794052 0.9669794057947295 5.16486255739056 0 0 0
223 3 1 5.672615619254643 0.6408027747544363 6.621183461342858 0 0 0
224 3 1 7.005650828411108 0.8524875331330642 7.319677083212642 0 0 0
304 36 1 11.464291776867396 3.421791718911653 8.996117620549214 0 0 0
305 36 1 12.328468921454215 2.7450714999552774 10.058772334963859 0 0 0
306 36 1 12.108089528798011 3.2532176126327363 11.513090342707146 0 0 0
307 36 1 13.10774444718401 2.6520878094558675 12.455018806571768 0 0 0
308 36 1 13.183196749549314 3.2897205267430834 13.8387201269913 0 0 0
309 36 1 14.277332309709713 2.775603075300487 14.716755785329937 0 0 0
310 36 1 14.203722623432178 3.392933708699856 16.10425212778341 0 0 0
311 36 1 15.417536236291076 2.9801672119223115 16.890450254656407 0 0 0
312 36 1 15.53350839749959 3.4048692171231347 18.300723247265108 0 0 0
313 36 1 16.8655486268053 2.924067272694199 18.919790468219528 0 0 0
314 36 1 17.045946546211937 3.4901208596770603 20.26982697980856 0 0 0
303 4 1 8.276602374669624 4.149946482810116 2.179546352138389 0 0 1
1878 14 1 2.9608832886894803 19.276572867107586 0.643301858378285 0 0 0
8197 55 1 2.1231293249941237 9.91487425283741 16.33574704713757 0 0 0
13 3 1 13.482868311703239 0.9055364240839768 22.61539519325051 0 0 0
380 36 1 10.292414137680572 2.8632607948370885 5.505461954726744 0 0 0
381 36 1 10.690576843041415 3.616535520465822 6.721913950568955 0 0 0
382 36 1 11.537804568291554 2.7026543417808275 7.631662806342986 0 0 0
383 6 1 6.86085020700764 5.212767000016323 8.775846969991525 0 0 0
384 6 1 8.215442135937701 5.328245690379681 9.51955530878016 0 0 0
385 6 1 7.979994609946237 5.054929728901941 10.981278742188737 0 0 0
386 6 1 9.197977085713399 5.205999710674993 11.90349791288907 0 0 0
387 6 1 8.973974527737617 5.175267978029712 13.35591166898701 0 0 0
388 6 1 10.149327917294563 5.596381339687441 14.210365118367612 0 0 0
389 6 1 9.876160428205434 5.695604658689448 15.730713409203817 0 0 0
390 6 1 11.147762438805984 5.533640361430428 16.586550783663693 0 0 0
391 6 1 11.037524927509061 5.612643757518975 18.131050431284283 0 0 0
392 6 1 12.3950638252008 5.295553598884172 18.810431244183455 0 0 0
393 6 1 12.256205531316418 5.403183291950771 20.362476108213883 0 0 0
394 6 1 13.557321585874812 5.370019340911948 21.2391927929334 0 0 0
3482 40 1 18.211108753394488 11.461159327421019 3.524751116167719 0 0 0
2635 64 1 12.672249166095815 1.3996132343824452 1.248614598274856 0 0 0
9345 63 1 2.8707440627190506 23.057306389770037 18.19923282951746 0 0 0
3861 28 1 14.893274657773206 14.22158256389563 6.802116501712974 0 0 1
8490 5 1 1.9154148580128219 11.62818247598868 7.456276096355108 0 0 0
3164 22 1 13.30096862515707 5.218478073234568 2.7747348924314528 0 0 0
602 6 1 4.268499743259439 5.447700357041085 2.8801175805224313 0 0 0
603 6 1 4.2543841214163045 5.342417166034138 4.420511262109994 0 0 0
604 6 1 5.561012883938078 5.224542038472753 5.156521081271191 0 0 0
605 6 1 5.369101341472257 5.3060757430294405 6.683931946747184 0 0 0
606 6 1 6.788888228796811 5.336364395458533 7.25358997679274 0 0 0
607 59 1 9.952230498551575 7.827160131237474 6.780346834808354 0 0 0
608 59 1 11.31522714924235 7.517392346487356 7.424274659881584 0 0 0
609 59 1 11.055424283670837 7.418309169568017 8.96245626854511 0 0 0
610 59 1 12.28091722761239 7.4014683611039 9.783057079953936 0 0 0
611 59 1 12.098403592707339 7.532936742064765 11.216101778933263 0 0 0
612 59 1 13.24064809280707 7.9852993460037744 12.11390003636739 0 0 0
613 59 1 13.077522645737865 7.643073054129741 13.555522423052818 0 0 0
614 59 1 14.406291057193723 7.843039775480163 14.240717545399079 0 0 0
615 59 1 14.345612580680932 7.199513523215046 15.655916716715089 0 0 0
616 59 1 15.730864623222153 7.286487817599122 16.386270907212467 0 0 0
617 59 1 15.59549339151356 6.965333464826814 17.857569950695694 0 0 0
826 59 1 7.566001665727513 7.8574930849914955 0.7634985448657782 0 0 0
302 4 1 7.644939140677467 3.2675255493674995 1.1329965512491555 0 0 1
9349 63 1 5.196546382226038 22.697731228410316 22.880419928825418 0 0 0
4092 31 1 17.47639115733733 18.77042148930691 11.716528150549939 0 0 0
3169 23 1 18.11880992979984 7.683097611353879 5.236834587427566 0 0 0
829 59 1 8.62834527160913 7.886339599023827 4.551322251956767 0 0 0
830 59 1 9.939911603290431 7.677122501805775 5.244813500039638 0 0 0
831 9 1 6.597859999278697 9.307699204163974 8.871628502212909 0 0 0
832 9 1 7.848667201207263 9.796221648575203 9.625517054301651 0 0 0
833 9 1 7.959395110370279 9.387000214813852 11.106852017502549 0 0 0
834 9 1 9.073073496130245 10.05831601676645 11.933690910416235 0 0 0
835 9 1 8.90446182047096 9.464674735747696 13.328726042514138 0 0 0
836 9 1 9.780648618790153 10.210537849955632 14.312459886462383 0 0 0
837 9 1 9.706547514178574 9.617719205483608 15.742578087986024 0 0 0
838 9 1 10.832876193762875 10.045991800397013 16.7223344762757 0 0 0
839 9 1 10.879646004340353 9.584843616235865 18.180900974752305 0 0 0
840 9 1 12.266158375911225 9.834052466217926 18.732087990851042 0 0 0
841 9 1 12.172527018493065 9.640133510987855 20.23940741154355 0 0 0
3855 28 1 11.133412458004383 14.671980140804179 0.16285245276005905 0 0 1
1448 13 1 18.06133715319376 17.133168224202837 20.890556899276667 0 0 0
4308 31 1 12.483251459867589 18.596326269687925 2.69162778921004 0 0 0
1672 14 1 13.589306959296833 18.9857837267638 20.985678243610067 0 0 0
1654 12 1 7.321450667176512 16.50572920243126 0.7501482749272752 0 0 1
2105 33 1 8.736485017359302 21.233791872912192 4.545663477374814 0 0 0
3859 28 1 13.748233504554142 14.287622900173133 4.55431913065857 0 0 1
905 9 1 4.189175235864785 9.79590568614593 2.9193194720204465 0 0 0
906 9 1 4.2237053067311905 9.495569499044437 4.4232917112993535 0 0 0
907 9 1 5.466274208586198 10.029655478461617 5.07538972814277 0 0 0
908 9 1 5.44212422909235 9.636730313134327 6.557169852771071 0 0 0
909 9 1 6.540026097417443 9.998579459525102 7.486374961823964 0 0 0
989 9 1 12.168134040293072 12.47406652101255 9.983817087679206 0 0 0
990 9 1 12.369396558779203 11.745843993312276 11.288434998797126 0 0 0
991 9 1 13.150160659393606 12.562148898986727 12.335042189528096 0 0 0
992 9 1 13.419119831103815 11.745662450470133 13.56907573864675 0 0 0
993 9 1 14.258204354951893 12.529586617451052 14.553362999351837 0 0 0
994 9 1 14.518219601495927 11.748660719781782 15.840314493182062 0 0 0
995 9 1 15.571991782433187 12.364304026014187 16.724195063710635 0 0 0
996 9 1 15.669277452091428 11.790051702345593 18.139120215504917 0 0 0
997 9 1 16.63076968055483 12.609954351756286 18.91546925150467 0 0 0
998 9 1 16.867179343407763 12.232116549123047 20.404207359965774 0 0 0
8577 3 1 0.8824507324474193 14.352379096140305 14.478850828606399 0 0 0
3703 25 1 15.810561857031292 11.881860508703461 0.40894065272805247 0 0 1
9643 64 1 6.384441682819715 25.494340902792956 16.64934933782484 0 0 0
7301 63 1 0.8197909992720582 1.6061969922503794 15.022205100262878 0 0 0
1209 9 1 10.275272142729678 12.415832366191097 5.219393970007631 0 0 0
1210 9 1 10.091701874321611 12.028056817713965 6.691484127326964 0 0 0
1211 9 1 11.08539188074932 12.674010771924724 7.664970374996749 0 0 0
1212 9 1 11.038190090417967 12.073786215081764 9.074669386140473 0 0 0
1213 11 1 4.243279167660409 14.418422168111102 2.7243576350416148 0 0 0
1214 11 1 4.0930856744777095 13.900109032864549 4.153121231251257 0 0 0
1215 11 1 4.980094625636749 14.620870537417286 5.191088409992177 0 0 0
1216 11 1 5.147360356435427 13.813736939747912 6.486784242040708 0 0 0
1217 11 1 6.225926458201509 14.442473367577398 7.399311870925221 0 0 0
1218 11 1 6.5093902781961415 13.767396227969623 8.74954986701822 0 0 0
1219 11 1 7.752976782106932 14.483576990003549 9.413847155550396 0 0 0
1220 11 1 7.829996100222208 14.215998424271412 10.942023072807448 0 0 0
1221 11 1 9.006778264421172 14.745768587391042 11.764496408481758 0 0 0
1222 11 1 8.985169699151259 14.33956529516123 13.213462209842598 0 0 0
1223 11 1 10.271928809069 14.823624448765859 13.976059169221744 0 0 0
1224 11 1 10.360809681305243 14.148347226291307 15.36142445536041 0 0 0
1225 11 1 11.547263652133864 14.460152019213808 16.243576638464987 0 0 0
1880 14 1 4.195312790565564 19.1410232771704 2.81168141884445 0 0 0
9026 59 1 1.97218208866099 19.082055020704544 17.556038289140172 0 0 0
3163 22 1 12.018146502298857 5.559454523965085 1.9630405598534653 0 0 0
3328 26 1 18.072240440578025 9.863635139205408 12.643422386145856 0 0 0
9647 64 1 8.934961294302923 25.34806094759707 21.086218258380388 0 0 0
4307 30 1 12.564195860923759 18.781054553022056 1.1960515545763355 0 0 1
7985 54 1 8.892023044754485 7.789899050475719 22.56763516449471 0 0 0
3858 28 1 13.738080013874583 14.242722654454333 3.008696111830447 0 0 1
7751 23 1 1.491440953018031 5.203927892737398 16.20660992855093 0 0 0
2563 64 1 17.56734147988191 1.5201534119881708 11.764553479039902 0 0 0
1437 13 1 11.241462658680106 16.754664489534097 8.894529424908201 0 0 0
1438 13 1 12.586399483466899 16.845457776602945 9.561327825926972 0 0 0
1439 13 1 12.429920867820309 16.74881341777085 11.058418760382063 0 0 0
1440 13 1 13.74794629703982 16.742369188370443 11.838589393552448 0 0 0
1441 13 1 13.429953640662404 16.864507617168027 13.322412880675886 0 0 0
1442 13 1 14.698367621118559 16.71595821438879 14.24239303461005 0 0 0
1443 13 1 14.495580261991003 16.534353736883396 15.72770163869783 0 0 0
1444 13 1 15.85998403723164 16.48358390639255 16.459626064550488 0 0 0
1445 13 1 15.638949595918511 16.45555104146071 17.99887024817599 0 0 0
1446 13 1 16.921463812918685 16.812983222760217 18.691984566080688 0 0 0
4611 34 1 12.604621516535524 23.501567290751318 1.4401857123930644 0 0 0
2326 16 1 3.9470338639202636 23.12375097460741 4.187785217599717 0 0 0
4091 31 1 17.538542483892297 19.165693898050115 10.195046825071781 0 0 0
8195 55 1 0.895510527234876 10.055029385956345 14.034113065143105 0 0 0
1657 13 1 8.588424779880299 16.79568880494361 4.449855191504506 0 0 0
1658 13 1 9.952101066454027 16.923711310000808 5.112412306753433 0 0 0
1659 13 1 9.848222300587652 16.779636396314185 6.66580457038585 0 0 0
1660 13 1 11.20613866155556 16.825195601514654 7.384368152664377 0 0 0
1661 14 1 6.406546523678724 18.537603051124478 8.9336509610588 0 0 0
1662 14 1 7.6659052612111624 18.807285209901405 9.68081975876565 0 0 0
1663 14 1 7.502636625770107 18.82892875987201 11.202842547988231 0 0 0
1664 14 1 8.82611437449919 18.894417534995082 11.96039860974559 0 0 0
1665 14 1 8.574280760716478 18.529412993468686 13.392359662656439 0 0 0
1666 14 1 9.948144616983114 18.624808766913603 14.193032977296363 0 0 0
1667 14 1 9.790174546793825 18.313461718041626 15.682502526590829 0 0 0
1668 14 1 11.014856768004583 18.78129006134673 16.57296537006777 0 0 0
1669 14 1 11.04671418572173 18.31064796745619 17.998894286136363 0 0 0
1670 14 1 12.285991340803024 18.804176693690955 18.774679279204154 0 0 0
1671 14 1 12.437987731920758 18.298448748978622 20.168939344635167 0 0 0
3478 24 1 11.303670425414264 10.39836510034492 0.54216632643142 0 0 1
301 4 1 6.819627243391978 4.031999918965478 0.10747112364441343 0 0 1
3483 40 1 18.25108586370311 11.77246070984661 5.054643951031853 0 0 0
4083 2 1 16.283164166264193 16.364343256915724 0.4602600728908672 0 0 1
3856 28 1 12.437530380593342 14.215989603108126 0.8737118089651611 0 0 1
9255 61 1 1.7374044441103607 21.048012943658573 8.531093748291893 0 0 0
1231 11 1 14.635907570210454 14.324293200235012 23.06313860537991 0 0 0
2103 60 1 7.837432439515059 20.989298785239455 2.1881763302609913 0 0 1
1881 14 1 4.139706534215945 18.67718922007895 4.305596372463748 0 0 0
1882 14 1 5.232246694524096 19.192090193206997 5.205302831697534 0 0 0
1883 14 1 5.291006562542167 18.55756987736247 6.61539183938801 0 0 0
1884 14 1 6.462017938398788 18.966474373771415 7.482237343285819 0 0 0
1885 33 1 10.968417744291168 21.046900587505142 9.135486187113973 0 0 0
1886 33 1 12.328537154434267 21.043719551306953 9.812934281813023 0 0 0
1887 33 1 12.165931079074195 20.78883932134357 11.286709386003636 0 0 0
1888 33 1 13.4717803775053 20.862839498116667 12.069877796086521 0 0 0
1889 33 1 13.350436130278085 20.646819341619775 13.578792269794128 0 0 0
1890 33 1 14.729096583131598 20.626693940483374 14.323157549582827 0 0 0
1891 33 1 14.510075563621783 20.696944642448287 15.826112276205038 0 0 0
1892 33 1 15.80544536320176 20.43486161352146 16.617246247219843 0 0 0
1893 33 1 15.824808086272059 20.757709967842686 18.15009400789392 0 0 0
1894 33 1 17.203760287223453 20.536113029746172 18.778531407265067 0 0 0
1895 33 1 17.156440795185553 20.84917986491745 20.257179637883322 0 0 0
9252 61 1 0.6317170230644034 20.812923257339 4.744087119012234 0 0 0
9637 64 1 3.262511543422196 25.39535757272171 9.594674933724672 0 0 0
3781 13 1 16.058052185093924 14.039345162901666 9.106725007562558 0 0 0
219 3 1 3.014893071713311 0.6623499186766248 2.2870163021817267 0 0 0
2106 33 1 9.958049144580839 21.439383822376804 5.450077883856193 0 0 0
2107 33 1 9.669166349425598 21.295287456429353 6.9578195150336635 0 0 0
2108 33 1 11.024868258643442 21.49265702235602 7.687534925289113 0 0 0
2109 16 1 8.308249831607892 23.4634577758083 12.005766536277932 0 0 0
2110 16 1 8.418498186213384 22.800830994804844 13.379440795308247 0 0 0
2111 16 1 9.364411884831425 23.469147479011127 14.363811470259922 0 0 0
2112 16 1 9.59259947445467 22.636247687219154 15.65958146362778 0 0 0
2113 16 1 10.546335868516152 23.385724802738235 16.544783119173044 0 0 0
2114 16 1 11.05138687545306 22.659668774919307 17.784738654978053 0 0 0
2115 16 1 12.185243140263486 23.267588585082137 18.646923273207275 0 0 0
2116 16 1 12.532837548351612 22.46924975406807 19.83509012812619 0 0 0
2117 16 1 13.2892585946478 23.32399237075862 20.84620648859975 0 0 0
2118 16 1 13.360405033541259 22.71839235395395 22.241323843915694 0 0 0
9633 64 1 0.9548961247705342 25.440251819853405 5.116290706929262 0 0 0
7305 63 1 3.4319219074817036 1.5289665742522713 19.223368412200664 0 0 0
14 3 1 14.875130700979428 1.1639200982901607 23.25913123358051 0 0 0
7756 23 1 4.199352282980131 6.031307473558862 21.9935248843703 0 0 0
1000 9 1 18.109630586881245 12.426193256133784 22.619535765600506 0 0 0
3481 40 1 16.829167763198317 11.633472636622153 2.7591563241729293 0 0 0
8794 58 1 0.6376902191132464 16.43559352826389 4.889819889534771 1 0 0
2327 16 1 5.0539337376654325 23.6849537359146 5.075440701109767 0 0 0
2328 16 1 5.025403406393608 23.245128117638497 6.591348844290018 0 0 0
2329 16 1 6.329067950157102 23.583638618736213 7.309228360146568 0 0 0
2330 16 1 6.141760456801634 23.173775154538305 8.7542884704343 0 0 0
2331 16 1 7.362904260142448 23.41624348389945 9.597239076458118 0 0 0
2332 16 1 7.443373338280309 22.746391616398803 10.994166897354178 0 0 0
2333 18 1 10.322406650239412 25.825467974270236 6.753674701880488 0 0 0
2334 18 1 11.652190837388183 25.46285945558821 7.430793874367777 0 0 0
2335 18 1 11.516864373363683 25.709177957257772 8.936197588299414 0 0 0
2336 18 1 12.71531245071708 25.191743955085805 9.685406313591495 0 0 0
2337 18 1 12.54145638969906 25.127671999304802 11.23624330481864 0 0 0
2338 18 1 13.8077532471237 24.612470358719282 11.856147940731091 0 0 0
2339 18 1 13.615406228367833 24.295736241748713 13.357799507442403 0 0 0
2340 18 1 14.802261753979003 24.58840802854518 14.258261472794649 0 0 0
2341 18 1 14.515738853284178 24.740264541369548 15.759382312141607 0 0 0
2342 18 1 15.72526958533237 24.918819037667205 16.621466114285063 0 0 0
2343 18 1 15.57705078977251 25.395479167474676 17.991149327898537 0 0 0
3862 28 1 16.152495127649026 14.393965669709686 7.615802349704529 0 0 1
7971 54 1 1.0227955510636109 7.987836210642537 6.520571866285175 0 0 0
9266 61 1 9.03808533724388 20.353476395747645 20.39800300289059 0 0 0
8795 58 1 0.6823897334260188 17.11553300681511 6.260115101688803 1 0 0
2554 18 1 9.066532146832964 25.998208001029077 3.034457456495246 0 0 0
2555 18 1 9.034629409824111 25.742527898335595 4.530207741481425 0 0 0
2556 18 1 10.344777803654791 25.707479487187985 5.259371842289669 0 0 0
2557 64 1 13.883327462731062 1.0014111323758692 4.980760618224346 0 0 0
2558 64 1 15.121361976123987 0.7055561333260537 5.846247628984284 0 0 0
2559 64 1 14.960844909123832 1.0144825874062442 7.301799125501322 0 0 0
2560 64 1 16.15912015968507 0.645007354473384 8.093424639902501 0 0 0
2561 64 1 16.382847981523348 1.3560733871156134 9.413510254249235 0 0 0
2562 64 1 17.281997303430554 0.6978766918116256 10.483064022213513 0 0 0
8581 3 1 3.421058559223307 14.073961769164647 18.903980033113186 0 0 0
3704 40 1 16.93183072552166 11.231842571771725 1.2834518275261442 0 0 0
2636 64 1 12.747978119472148 0.7995074838135566 2.6429243699199936 0 0 0
2637 64 1 14.025562793344053 1.1131650458616331 3.4553431400204375 0 0 0
4306 30 1 11.246790650393159 18.694082730112516 0.4492754960290674 0 0 1
8202 55 1 4.451143859058555 10.210103019584881 22.256794296790353 0 0 0
1227 11 1 12.542029941310744 14.298203844880563 18.583568096633698 0 0 0
3479 24 1 12.48252169291572 9.925707746325893 1.3318272937043378 0 0 1
2941 22 1 13.176084551892204 5.172775501082545 4.317519574158001 0 0 0
2942 22 1 14.538305857683879 5.076343398368447 4.952757720973857 0 0 0
2943 22 1 14.428914191906385 4.829115055776708 6.446016042282657 0 0 0
2944 22 1 15.722440169086823 5.049012888012796 7.176927205429622 0 0 0
2945 22 1 15.61184985507649 5.281611046387299 8.728715321297372 0 0 0
2946 22 1 16.93387506081264 5.211161414323307 9.493763994382899 0 0 0
9027 59 1 3.3088171517020095 19.061738928979988 18.2704820825677 0 0 0
827 59 1 7.42415338194085 7.9690259244106825 2.284732346605573 0 0 0
2325 15 1 4.138061194764033 23.48209608689605 2.6693934754570305 0 0 1
9342 63 1 0.7913958119957787 23.96426367383054 15.0377284086867 0 0 0
1436 11 1 3.3639066077661837 13.725796309899891 1.690648174881414 0 0 0
7304 63 1 3.1829611046972404 0.7037034955074192 17.967516402333864 0 0 0
8798 58 1 3.0813712260310613 16.270298795797107 9.323575214915223 0 0 0
9348 63 1 4.041521106490851 23.270858808552617 22.041675174195248 0 0 0
3323 26 1 14.71388003341964 9.636798939445223 7.180298919637726 0 0 0
3324 26 1 15.85537868271629 9.3520144627275 8.13979384104324 0 0 0
3325 26 1 15.620703769831838 9.991485568745087 9.505481460909158 0 0 0
3326 26 1 16.757664820487378 9.53392676614471 10.378361932388946 0 0 0
3327 26 1 16.866865844430446 10.173944089280958 11.786255515875437 0 0 0
4533 32 1 17.32843369845366 21.24575808998456 1.5441909552844248 0 0 1
1206 39 1 7.925573163223259 12.090666069330997 2.0424509499053647 0 0 1
2947 22 1 16.83909891256849 5.597139144561114 11.001265252993782 0 0 0
3400 26 1 13.542391512616033 9.350087835786638 4.9853806111759695 0 0 0
3401 26 1 14.906693814297416 9.320290806685387 5.681540470286946 0 0 0
4542 34 1 18.444050221101218 23.76982373619904 12.68671675030476 0 0 0
3860 28 1 15.085008472956787 14.485265823683791 5.319470805319039 0 0 1
2102 60 1 7.930178852789563 21.346925118972898 0.7477059099570671 0 0 1
9347 63 1 4.012159033384115 22.89977887728662 20.574891731327444 0 0 0
9344 63 1 1.8960261322855683 23.769721310548746 17.39380879619287 0 0 0
8501 5 1 7.833224883676362 12.266335668205045 20.324220928206564 0 0 0
4085 2 1 17.612929588564093 16.3207689444497 2.5398458487589552 0 0 1
2718 20 1 16.061467655949446 3.4015507299328456 0.7057991517267116 0 0 0
8198 55 1 2.1613160685596666 10.527009110098462 17.777300102987184 0 0 0
601 6 1 2.9350176061538487 5.178519105021334 2.1702652774633218 0 0 0
218 3 1 3.101504267435875 1.1457026464505071 0.8379627322805042 0 0 0
3168 23 1 18.300656938024204 7.264413623230505 3.758368268377789 0 0 0
3782 13 1 17.417934586860056 14.149596438187675 9.805689653394053 0 0 0
3783 13 1 17.206550232097044 14.200160515140373 11.249160265470216 0 0 0
7520 34 1 0.845785643518641 3.4085453883327492 5.95806473659433 0 0 0
9254 61 1 1.8861855030590975 20.945670714437373 6.9861790260694 0 0 0
9638 64 1 3.0030748135563607 25.43250919677104 11.126303044661473 0 0 0
3857 28 1 12.348922360471178 14.319115197773591 2.3764133672345653 0 0 1
4087 31 1 15.099769548872992 18.83118027113306 5.622298279836361 0 0 0
4088 31 1 14.972954944465911 18.979773312933226 7.1381396863885564 0 0 0
4089 31 1 16.2771841523867 19.335461852820472 7.824498253937672 0 0 0
4090 31 1 16.2932291669678 19.00442769768149 9.347781949366187 0 0 0
2552 18 1 8.016270940782565 25.961392662629443 0.6798825458963322 0 0 0
6386 56 1 0.9225237567064054 17.362587049703652 22.504678771999625 0 0 0
9029 59 1 4.4648102496340805 19.245977762163225 20.56073642879705 0 0 0
828 59 1 8.717812957439524 7.742822151424103 2.992478172481983 0 0 0
4309 31 1 13.899915135033805 18.68646561335396 3.3252805696401744 0 0 0
4310 31 1 13.802116684957221 18.57431262691462 4.851085362711327 0 0 0
620 59 1 18.01432308984738 7.562651919574883 20.822610957932405 0 0 0
9639 64 1 4.226407039058467 25.644482412600606 12.017720520406789 0 0 0
3329 26 1 18.039101545571878 10.409562013890788 14.098561951029486 0 0 0
904 9 1 2.791163634644867 9.505272134376472 2.333624029645987 0 0 0
4535 34 1 14.128884275925323 22.602065693174858 5.095237363889643 0 0 0
4536 34 1 15.054519971205284 23.422885295666344 5.879895814507967 0 0 0
4537 34 1 15.182582986929633 22.911141174524285 7.370457950354643 0 0 0
4538 34 1 16.286949440277375 23.525857102333187 8.169952349792812 0 0 0
4539 34 1 16.41823744402186 22.87036076233803 9.54134488498629 0 0 0
903 9 1 2.729159697829388 9.674658918193272 0.7677669568205668 0 0 0
1897 33 1 18.477403504367686 21.12989791862736 22.432997067040855 0 0 0
9346 63 1 2.9041855929579916 23.50620014837879 19.686190828645074 0 0 0
4612 34 1 12.73307692701558 22.805918562475114 2.769698419478623 0 0 0
4613 34 1 13.742743368049474 23.377150645156387 3.817641608539494 0 0 0
2553 18 1 7.837180398677199 25.67665032846074 2.1603465334573193 0 0 0
2345 18 1 16.816515897885182 25.173985070665438 20.19821821545409 0 0 0
378 36 1 8.992606173212586 3.2680957530167998 3.2843194236955773 0 0 0
9343 63 1 1.7059127674901748 23.14707900194435 16.002349776226364 0 0 0
9262 61 1 6.057680381529968 20.37174263955533 16.229580385168262 0 0 0
12 3 1 13.43398492313781 1.1247003217412712 21.139509279202017 0 0 0
7970 54 1 0.879078037770422 7.473304067793511 5.097616133256134 0 0 0
9265 61 1 7.824132827111512 20.938325887972756 19.659122154377073 0 0 0
1205 39 1 7.91690229251868 12.675622799647662 0.6656190883002515 0 0 1
9261 61 1 5.194749007616422 21.336418677438875 15.379265704162481 0 0 0
9260 61 1 4.88259094125317 20.61071585643411 14.04457234855683 0 0 0
4700 35 1 11.760442353792515 22.774554843310643 0.3205505719338101 0 0 1
3166 23 1 17.294489822999964 7.3046870143240135 1.4538159020428014 0 0 0
7303 63 1 2.0743374877496605 1.431907654282855 17.18895000613237 0 0 0
2948 22 1 18.182803461084482 5.417673568676918 11.754511625986268 0 0 0
2716 35 1 11.364120384488315 1.0205215689413938 0.5341760518400634 0 0 1
1879 14 1 2.8598157883188087 18.975724622359923 2.144146124795664 0 0 0
9264 61 1 7.572894267085374 20.174795731848562 18.331565412578588 0 0 0
9636 64 1 1.973135585428187 24.88016499470861 8.86537890122164 0 0 0
7534 34 1 8.27360799042084 3.145304959623589 22.220025099484456 0 0 0
1229 11 1 13.227390400953741 14.470163389442643 20.94242192673134 0 0 0
3706 13 1 18.20703102380528 14.450055243995326 13.592736927789021 0 0 0
8578 3 1 1.0527296936280786 14.99592387177524 15.812951056672798 0 0 0
316 36 1 18.27056326281321 3.212646877741106 22.628594328831582 0 0 0
9259 61 1 3.8126808052676653 21.223847301418232 13.185071682142496 0 0 0
1674 14 1 14.663790504534434 19.15156741788237 23.271380946948906 0 0 0
619 59 1 16.73541205919794 6.921313673969388 20.18497015627467 0 0 0
8584 3 1 4.8632962929457735 14.672387590578042 22.462024061265293 0 0 0
9646 64 1 7.645477848657892 24.958403338837904 20.316850492289333 0 0 0
8203 55 1 5.628172954395806 9.720580906791128 23.088506836002622 0 0 0
7302 63 1 1.8997272939089271 0.8762625911545835 15.808376513010108 0 0 0
9640 64 1 4.040998430996578 25.395507164221495 13.549404004970546 0 0 0
843 9 1 13.500832196853176 9.487021865080834 22.4473519177679 0 0 0
3165 23 1 16.075863349251886 7.613729379608304 0.538074757641149 0 0 0
1435 11 1 3.031301080575597 14.68059211131596 0.5514345527684119 0 0 0
1228 11 1 12.367077089972943 13.735826266769195 19.994661470727383 0 0 0
9025 59 1 2.01428209443966 18.993082884936943 16.059363889544414 0 0 0
1207 39 1 9.137005093989474 12.525416334504838 2.953579746588056 0 0 1
2104 33 1 9.10639066594436 21.27083665548343 3.056114037737016 0 0 0
1226 11 1 11.423004342041185 13.93259507212202 17.657447802696026 0 0 0
4543 34 1 18.62241256450306 23.28982389336503 14.143720299051557 0 0 0
7521 34 1 2.005465160835988 2.8401764609165396 6.816615263022832 0 0 0
7306 63 1 4.140707012101624 0.8288886406775093 20.33655044396101 0 0 0
7307 63 1 4.052691603963837 1.512245199244969 21.680081123773583 0 0 0
2324 15 1 2.8457062222364375 23.28812771010725 1.8650563726994493 0 0 1
4701 36 1 16.95380204473418 25.717337992072594 1.267613378968493 0 0 0
7308 63 1 5.100224464891088 0.8821281299615856 22.554812524295038 0 0 0
395 6 1 13.375568644081671 5.442238391655759 22.726522803561007 0 0 0
1230 11 1 13.470146910448774 13.718343678467347 22.30596246054051 0 0 0
825 41 1 6.273533604528826 8.132119970713822 0.07459427241466308 0 0 1
9267 61 1 9.208242507954314 20.99103615266847 21.785328885338714 0 0 0
7522 34 1 2.001710918009378 3.248513329403122 8.332339372904045 0 0 0
7523 34 1 3.2388908905670046 2.931909688091613 9.112417934991592 0 0 0
7524 34 1 3.0606181912415598 3.2766863088995097 10.574186237253159 0 0 0
7525 34 1 4.314580649911731 3.1370660352103563 11.434405742535263 0 0 0
7526 34 1 4.065500684623006 3.2272056386829795 12.9251692957841 0 0 0
7527 34 1 5.311432761266291 2.9115151156154244 13.744829815819974 0 0 0
7528 34 1 5.302381740721046 3.459210013177198 15.224374016566548 0 0 0
7529 34 1 6.457647560083265 2.967261654926211 16.06500491884666 0 0 0
7530 34 1 6.412691609403149 3.4728648480398236 17.4857993415389 0 0 0
7531 34 1 7.522093723076763 2.906008272560434 18.31461189028746 0 0 0
7532 34 1 7.3544051602323375 3.153805571884496 19.795306353014457 0 0 0
7533 34 1 8.359729325126782 2.5568666162943368 20.761511526801197 0 0 0
7757 23 1 5.2407827059542935 5.3074488244426785 22.87108620607716 0 0 0
9648 64 1 8.847217789678433 25.19452329466528 22.635395173330764 0 0 0
4924 36 1 15.786270424509958 25.18200385931534 0.5772798640343719 0 0 0
2719 20 1 17.421982687696637 3.423571696167277 1.4167942618081002 0 0 0
2344 18 1 16.872805170074372 25.362097620134257 18.67977502971278 0 0 0
3399 26 1 13.56473544321783 9.209910876274138 3.492809579453071 0 0 0
9024 59 1 0.6068889069532613 18.90571302508694 15.290841349984783 0 0 0
621 59 1 18.08167173341096 7.2908552699506375 22.38150813882187 0 0 0
842 9 1 13.508336069465347 9.792723590859298 20.963883152109435 0 0 0
7752 23 1 1.7694579909105173 6.023213946059774 17.523006657263235 0 0 0
7753 23 1 2.7188311274402173 5.346097588036157 18.5630200970841 0 0 0
7754 23 1 2.97674424322748 6.144608917526546 19.791232525796794 0 0 0
7755 23 1 3.9691297790568116 5.375187705846838 20.642888722474805 0 0 0
7983 54 1 7.594321367162875 7.84803077673503 20.343835444274912 0 0 0
2949 22 1 18.102800167507315 5.809296848316918 13.227052297591696 0 0 0
9644 64 1 6.5640624876557885 24.770805187859704 17.98264026196807 0 0 0
2564 64 1 18.716353977282132 0.8052706265277758 12.529556731592233 0 0 0
2101 60 1 6.597096420771687 21.06563315238119 0.05510815271834799 0 0 1
8797 58 1 1.9228686857538666 16.86665464869967 8.59980846757552 0 0 0
3167 23 1 17.05957786140608 7.58181253087364 2.924335372797007 0 0 0
8579 3 1 2.1655008117047223 14.338078367802543 16.637124699134063 0 0 0
7535 34 1 9.583731040634492 2.8334479550600666 22.973776051136127 0 0 0
7972 54 1 2.1066273095297214 7.473623271363633 7.450152777179159 0 0 0
7973 54 1 1.9719112283876452 7.983141616410819 8.906556900872294 0 0 0
7974 54 1 3.231545270811741 7.790654748771626 9.743374254492005 0 0 0