LAMMPS data file via write_data, version 23 Jun 2022, timestep = 1000

8487 atoms
2 atom types
8471 bonds
3 bond types
8455 angles
3 angle types
8439 dihedrals
3 dihedral types

0 36.89775039 xlo xhi
0 26.67072 ylo yhi
0 236.7516044 zlo zhi
0 7.448720975 0 xy xz yz

Masses

1 14
2 15

Pair Coeffs # lj/cut/omp

1 0.0914 3.95
2 0.1947 3.75

Bond Coeffs # harmonic/omp

1 449.5 1.53
2 449.5 1.53
3 449.5 1.53

Angle Coeffs # harmonic/omp

1 62.0967 114
2 62.0967 114
3 62.0967 114

Dihedral Coeffs # opls/omp

1 1.411 -0.271 3.145 0
2 1.411 -0.271 3.145 0
3 1.411 -0.271 3.145 0

Atoms # molecular

1 19 1 7.458765028054511 1.3994195158378973 8.432922049046002 0 0 0
2 19 1 8.28182285001119 0.5620541114438996 9.43721220448311 0 0 0
3 19 1 8.790673164417976 1.4571915877698902 10.555477553757575 0 0 0
4 19 1 9.941586376221276 0.8377014339333834 11.391642203999513 0 0 0
5 19 1 10.3286921134925 1.5771834192923995 12.693489726105327 0 0 0
6 19 1 11.570820669311706 1.0571067009291906 13.46567281442297 0 0 0
7 19 1 11.801213113519514 1.5984121101792823 14.871843948177451 0 0 0
8 19 1 12.984781109809555 1.0805946197339396 15.683111586507382 0 0 0
9 19 1 13.193956402493558 1.7580823862389003 17.096429973190105 0 0 0
10 19 1 14.04373181268491 0.9079572062363636 17.990493672811695 0 0 0
11 19 1 14.426864240973263 1.538232142323561 19.309379156543176 0 0 0
12 19 1 15.310711409140879 0.7549302503454476 20.255837020980437 0 0 0
13 19 1 15.62053311572398 1.4976044152425225 21.5543073497868 0 0 0
14 19 1 16.696272156182626 0.8501409178101363 22.4373844779716 0 0 0
15 19 1 17.12530183147777 1.601669037865252 23.67456095286062 0 0 0
3663 35 1 16.63264019641642 25.79030497630039 0.9001830268551103 0 0 0
31 19 1 2.706951187516415 0.6342108268126627 0.7413043143242002 0 0 0
32 19 1 3.281201375460271 1.372767846904922 1.9784734448989947 0 0 0
33 19 1 3.9692102768353434 0.5564025670056362 3.017670752101137 0 0 0
34 19 1 4.742742544237666 1.3579448136732712 4.0286530719873745 0 0 0
35 19 1 5.296228649532841 0.5775053623991401 5.237901046625108 0 0 0
36 19 1 6.0203202972978085 1.3792991676714104 6.3395075242695365 0 0 0
37 19 1 6.875484020203346 0.5223647497483657 7.31015572307974 0 0 0
75 4 1 10.765841852392107 2.9284802638719807 6.177402759389452 0 0 0
76 4 1 11.878058295159494 3.5602056200574386 6.958971691398299 0 0 0
77 4 1 11.918569907795275 3.0037999668151327 8.431611455115933 0 0 0
78 4 1 13.07088371318773 3.645172920247558 9.238407127244518 0 0 0
79 4 1 13.303425106862857 3.139183423894992 10.693095190112967 0 0 0
80 4 1 14.620897906038623 3.53203211959216 11.368791605783155 0 0 0
81 4 1 14.745657281593965 3.1828748225024897 12.83589650781837 0 0 0
82 4 1 16.013658755000225 3.7750067545596337 13.422980810741475 0 0 0
83 4 1 16.313144414800693 3.3243414455714673 14.844889490652049 0 0 0
84 4 1 17.603446463405657 3.7090496415350582 15.482531754496835 0 0 0
85 4 1 17.560990208577703 3.6336384599454083 16.96670883794801 0 0 0
571 16 1 18.568144571748405 8.019087579736247 17.128668841702844 0 0 0
87 4 1 18.75013353665734 3.336097292703497 19.22809388684947 0 0 0
294 4 1 7.3043923269265125 3.5904828595060883 0.7523293312827446 0 0 0
295 4 1 7.692554397048803 3.038599715070893 2.127476101571786 0 0 0
296 4 1 8.944488094614432 3.659101002544342 2.756966796278198 0 0 0
297 4 1 9.177155006798934 3.049623515720517 4.119653725664582 0 0 0
298 4 1 10.479490937892875 3.486745133966312 4.78191614462742 0 0 0
299 7 1 7.195252565882689 5.4258004665296005 8.499048559552184 0 0 0
300 7 1 8.643028006261124 5.246749391488892 9.046143093217442 0 0 0
301 7 1 8.774617790265706 5.591198053950614 10.555177266339001 0 0 0
302 7 1 10.167415267056429 5.457641943377753 11.111682993821171 0 0 0
303 7 1 10.35045510526631 5.854037134890127 12.573739020742407 0 0 0
304 7 1 11.621629446013538 5.413337222735276 13.26246467637342 0 0 0
305 7 1 11.657020977320954 5.805910443935369 14.721958514872645 0 0 0
306 7 1 12.907302292659399 5.355395344701188 15.53866646915295 0 0 0
307 7 1 12.918731949293093 5.7259044952046 17.032790513791664 0 0 0
308 7 1 14.238499046549157 5.4617016092384185 17.74150388038216 0 0 0
309 7 1 14.336652107202005 5.887881600516081 19.23728153653934 0 0 0
310 7 1 15.627344908460758 5.708226846326747 20.0688909870126 0 0 0
311 7 1 15.629133836116784 5.991630393750197 21.569217059467483 0 0 0
312 7 1 16.93591282030299 5.509154371833576 22.179771826077946 0 0 0
1098 7 1 2.6791655551763185 14.283860109630725 0.32377781010055634 0 0 0
1466 18 1 18.892643448402435 21.452928537885434 19.445552105470533 0 0 0
516 7 1 2.9711041332864543 5.193325453416302 0.6166394108598932 0 0 0
517 7 1 3.079355750566571 5.770206580090181 2.033815358610879 0 0 0
518 7 1 4.390381205323879 5.421255523441346 2.6758561483751677 0 0 0
519 7 1 4.557291430490331 5.73526496473397 4.167562233086016 0 0 0
520 7 1 5.819611031962819 5.192643099392247 4.820199049782025 0 0 0
521 7 1 5.997539763061776 5.722479040159761 6.241981301871414 0 0 0
522 7 1 7.172480278593601 5.111269751196458 6.98798912705997 0 0 0
560 16 1 10.694791788242716 7.190687645946424 5.519219031069228 0 0 0
561 16 1 11.895900140804066 7.847439224895979 6.177654881672856 0 0 0
562 16 1 12.045631485467949 7.406607057718358 7.649430601641159 0 0 0
563 16 1 13.415374172778241 7.771379456289024 8.282805412559512 0 0 0
564 16 1 13.411157975859636 7.462479410205443 9.801507523444553 0 0 0
565 16 1 14.708475400354004 7.813236098752811 10.492038259703913 0 0 0
566 16 1 14.726776364842715 7.458657373042402 11.950735854402366 0 0 0
567 16 1 15.880121683031746 8.068953946955316 12.801071273125133 0 0 0
568 16 1 15.854987224673911 7.505069975416109 14.207989839575998 0 0 0
569 16 1 16.997012079531732 8.037753692785275 15.05625422088383 0 0 0
570 16 1 17.32813563889074 7.490957038257643 16.414759640041588 0 0 0
8063 62 1 6.05540132603604 23.41959661162781 20.34692393740206 0 0 0
2365 56 1 11.621001108065013 5.249747803809598 0.31635420774923817 0 0 0
2668 27 1 18.491502466703682 11.74548779732655 4.380774881815774 0 0 0
616 16 1 7.658652151081573 7.483741516708672 1.3274945573292027 0 0 0
617 16 1 8.958334310993488 7.921710191791845 2.0076818937308905 0 0 0
618 16 1 9.1058509660428 7.434438246562883 3.4554857937465018 0 0 0
619 16 1 10.339834179026937 7.951005618599211 4.214382390824677 0 0 0
620 9 1 7.391951545408435 9.452205108983595 7.6613984042732 0 0 0
621 9 1 8.666258595290772 9.107710276323555 8.429767146572926 0 0 0
622 9 1 8.692408590666577 9.711585839444199 9.810718610740887 0 0 0
623 9 1 10.066576210192837 9.379345007047968 10.457210962300275 0 0 0
624 9 1 10.278584240717013 9.853791727006389 11.934385810680121 0 0 0
625 9 1 11.607791389385609 9.567059009284295 12.514935301430699 0 0 0
626 9 1 11.543870000303185 9.90942598541112 14.012768654521501 0 0 0
627 9 1 12.864584866929862 9.708674482434372 14.798721507811743 0 0 0
628 9 1 12.822522268172822 10.299019795985982 16.144158323776217 0 0 0
629 9 1 14.034637554391535 9.92790261952393 16.973778051615472 0 0 0
630 9 1 14.119052535989406 10.419393851941972 18.39706506767714 0 0 0
631 9 1 15.220677007756898 9.869039679683242 19.292485562737482 0 0 0
632 9 1 15.239207509775188 10.19587471069027 20.78995119815266 0 0 0
633 9 1 16.49679419384039 9.66405292498387 21.44647180020078 0 0 0
634 9 1 16.577200599162072 10.155725313708952 22.880540815595747 0 0 0
8276 63 1 1.3437877409170738 25.387365776765858 6.725943589235963 0 0 0
3662 36 1 15.595167238866772 24.997883125716037 0.13539043929834804 0 0 1
838 9 1 2.9888382209090465 10.08704119523002 1.3771317336175766 0 0 0
839 9 1 4.334696173242454 9.73362303909528 1.9379952473853745 0 0 0
840 9 1 4.4167234082165985 9.986109415043122 3.481687334132405 0 0 0
841 9 1 5.711178808467514 9.547356529054625 4.0556017624519205 0 0 0
842 9 1 6.010058014071145 9.789911004343317 5.538302507502019 0 0 0
843 9 1 7.3751870853867585 9.231265781079589 6.170741027000117 0 0 0
844 10 1 10.522688155141767 11.646121637943587 5.642569843387904 0 0 0
845 10 1 11.170906075247306 12.518784087793604 6.717125254058772 0 0 0
846 10 1 11.910469453202248 11.737998889556836 7.765894904828541 0 0 0
847 10 1 12.325003925291117 12.508959615585175 8.970683137022275 0 0 0
848 10 1 13.140071019595615 11.78811998803856 10.009730157202325 0 0 0
849 10 1 13.748123967510983 12.65751819435283 11.204033318706063 0 0 0
850 10 1 14.76554274105215 11.872555340434158 12.051994440280566 0 0 0
851 10 1 15.315988759624108 12.733524062682426 13.235278277838026 0 0 0
852 10 1 16.37320318450221 11.991363993239192 14.043913285524235 0 0 0
853 10 1 16.635175430262205 12.725490386764662 15.353691719457384 0 0 0
854 10 1 17.601583026846274 11.922689671920098 16.187378318263757 0 0 0
855 10 1 17.81100554255661 12.570072826507705 17.56022000148175 0 0 0
8064 62 1 6.139283200977484 23.938937041358862 21.752384281031816 0 0 0
856 10 1 18.938408162933246 11.960503513274489 18.374704270021766 0 0 0
1064 10 1 7.613955507275749 11.858905360532376 1.37141720563081 0 0 0
1065 10 1 8.513490504171845 12.641448447340283 2.288887099433086 0 0 0
1066 10 1 9.191031275163887 11.786671606467587 3.379268950060009 0 0 0
1067 10 1 9.974776638140442 12.514234381991614 4.492509684351345 0 0 0
1068 7 1 7.172499252542434 14.646302418269135 8.13057122305562 0 0 0
1069 7 1 8.389136379359204 14.04169712362422 8.866832505346874 0 0 0
1070 7 1 8.548359285891637 14.533419281065065 10.275400376115218 0 0 0
1071 7 1 9.775804577546992 14.065588233671118 11.022543918806852 0 0 0
1072 7 1 9.860956060916294 14.617118350682052 12.43868740304876 0 0 0
1073 7 1 10.974559705963046 13.990473795172903 13.280099248036537 0 0 0
1074 7 1 11.126433857922626 14.619096232211618 14.629515028919718 0 0 0
1075 7 1 12.302169887034111 14.109598850046718 15.41915641150505 0 0 0
1076 7 1 12.568547622639283 14.678269912261113 16.771055994940117 0 0 0
1077 7 1 13.668491787274323 13.909558526257936 17.507911006121024 0 0 0
1078 7 1 14.008753383940036 14.615249939414147 18.835917692592215 0 0 0
1079 7 1 15.207471110005727 14.046939963462927 19.539862676173527 0 0 0
1080 7 1 15.38774086580445 14.71738044105769 20.860832737762383 0 0 0
1081 7 1 16.35150165596479 14.049759127340248 21.808268562400563 0 0 0
6314 63 1 12.668626877721046 3.113703967597865 23.512974853216154 0 0 0
8065 62 1 7.375956679982007 23.533961200548113 22.526244277438213 0 0 0
2979 29 1 18.522346247626313 16.464526328175726 3.2365779204290743 0 0 0
1099 7 1 2.885473642456281 14.79925398743899 1.6966677452563617 0 0 0
1100 7 1 3.9548415539809407 14.004524454829253 2.5199969878664783 0 0 0
1101 7 1 4.303039796182756 14.624435055912508 3.888889735135591 0 0 0
1102 7 1 5.424393858397567 14.00117882218411 4.663945631760108 0 0 0
1103 7 1 5.8255781266881765 14.761653954818119 5.945589836294364 0 0 0
1104 7 1 7.058093491930268 14.202475140389481 6.654045080799455 0 0 0
1193 13 1 10.183189210726104 16.72674839344027 6.143140792992653 0 0 0
1194 13 1 11.53573603512107 16.787753792097647 6.840653072138161 0 0 0
1195 13 1 11.487972012642063 16.72981757608717 8.380505682055343 0 0 0
1196 13 1 12.905776112190253 16.906302285470723 8.94631774797515 0 0 0
1197 13 1 12.971811579564196 16.845847255902274 10.439417924234867 0 0 0
1198 13 1 14.327325949164642 16.605519436399057 11.158922973744167 0 0 0
1199 13 1 14.333733398810654 16.896332352978387 12.66892592171778 0 0 0
1200 13 1 15.753196111272782 16.808913191611126 13.324683775495135 0 0 0
1201 13 1 15.696377113486593 17.0765891349025 14.838249718266336 0 0 0
1202 13 1 17.054926189439524 16.886342697041524 15.497467167705134 0 0 0
1203 13 1 17.110154755818375 17.09345839472451 17.03536938951933 0 0 0
1082 7 1 16.416051446980738 14.547101451558136 23.270582792359058 0 0 0
8287 63 1 9.811263962482625 25.525752091161454 18.107690827863127 0 0 0
1225 13 1 7.576615564613746 17.0341562111282 0.1595246473971966 0 0 0
1226 13 1 7.715944028909112 16.667773127344482 1.6621790049731688 0 0 0
1227 13 1 9.069185799596811 16.746092146944736 2.3606240989100815 0 0 0
1228 13 1 8.904475611287477 16.711577530700467 3.8400183814107933 0 0 0
1229 13 1 10.237905781118418 16.841357563364312 4.5960878348295395 0 0 0
1230 16 1 7.155108031316767 19.102045382167876 8.6226373219176 0 0 0
1231 16 1 8.22529247562413 18.36695960507228 9.416979507155759 0 0 0
1232 16 1 8.393115341368945 19.006673203394673 10.823674747487967 0 0 0
1233 16 1 9.6222390468978 18.60394527225773 11.615036867498663 0 0 0
1234 16 1 9.794000937229232 19.286200739360577 12.998751028250757 0 0 0
1235 16 1 11.08077987554672 18.894268373548556 13.707137663774597 0 0 0
1236 16 1 11.20815805419726 19.34485068644985 15.15880568853806 0 0 0
1237 16 1 12.539892891492745 18.88896429169052 15.845482639496138 0 0 0
1238 16 1 12.684397328709641 19.097821129232052 17.364591301681678 0 0 0
1239 16 1 14.06818897218975 19.155923089489118 17.925905589470123 0 0 0
1240 16 1 14.144077921526131 19.19161812109034 19.476464745207494 0 0 0
1241 16 1 15.532173992393776 19.336554897691762 20.089653197589804 0 0 0
1242 16 1 15.585455375208388 19.143415240250334 21.614742567595044 0 0 0
1243 16 1 16.971956191513726 19.114578576563638 22.233450009926596 0 0 0
1063 10 1 6.947553631854346 12.59675221177885 0.1608353045049676 0 0 0
8280 63 1 4.323828948522241 25.64229477444242 10.944417501484063 0 0 0
1447 16 1 2.779480084719687 18.64726403200933 0.6909142769810382 0 0 0
1448 16 1 3.232817302094017 19.24053664572748 1.9882165516654875 0 0 0
1449 16 1 4.090536300570731 18.377153771723634 2.855663687389545 0 0 0
1450 16 1 4.541096471416634 19.210854014790122 4.028918346710071 0 0 0
1451 16 1 5.609166473965081 18.48934947353735 4.944898298318277 0 0 0
1452 16 1 5.764552464424863 19.149071478347523 6.334542322226375 0 0 0
1453 16 1 6.869132046527779 18.461755038392113 7.223715179520547 0 0 0
1454 18 1 10.292043546390373 20.996625500374595 6.321836471031977 0 0 0
1455 18 1 11.653022454824995 20.805973349488852 7.004740646830462 0 0 0
1456 18 1 11.737635375250507 21.035393608573955 8.512139791807442 0 0 0
1457 18 1 13.211655667825285 20.95491963841556 9.120916509009497 0 0 0
1458 18 1 13.359607835794504 21.198715121430396 10.638129727649389 0 0 0
1459 18 1 14.7490151467602 21.08656136147459 11.361762190902525 0 0 0
1460 18 1 14.771726098967594 21.276643290388026 12.875058263137836 0 0 0
1461 18 1 16.118858523384496 21.1909532673564 13.5519166128926 0 0 0
1462 18 1 16.105098053876194 21.276834069127755 15.121738173783424 0 0 0
1463 18 1 17.499600199040614 21.107152106318157 15.770196541039542 0 0 0
1464 18 1 17.58252972183977 21.42145288863119 17.268221334682742 0 0 0
1204 13 1 18.49090058342904 16.851710230994097 17.69575638715327 0 0 0
8062 62 1 4.983583630414671 23.911678912737255 19.441473603535417 0 0 0
1673 18 1 7.722748464759538 21.419323785942826 0.4037307303354426 0 0 0
1674 18 1 7.5833301840105065 21.20327214387221 1.93531998074419 0 0 0
1675 18 1 8.94560019252398 21.043180238774173 2.6748573083448908 0 0 0
1676 18 1 8.886752697181741 21.016317691341573 4.1608382387041445 0 0 0
1677 18 1 10.290141937042709 20.928019000814043 4.78567310053283 0 0 0
1678 19 1 7.224111996528625 23.31635499862735 8.595643672847851 0 0 0
1679 19 1 8.350726112228442 22.657540448156738 9.4769063572266 0 0 0
1680 19 1 8.86869605838131 23.453231141579614 10.73150162680566 0 0 0
1681 19 1 9.800795539695391 22.81476246259141 11.734088643838172 0 0 0
1682 19 1 10.059096032132409 23.537985227683706 13.09690792401564 0 0 0
1683 19 1 11.289883993737815 22.89846944993938 13.789771170303302 0 0 0
1684 19 1 11.616119919451888 23.544262575168098 15.124734300061554 0 0 0
1685 19 1 12.668637889329638 22.796546962467602 15.904515084586794 0 0 0
1686 19 1 12.940567527595588 23.507349078858873 17.248534844898163 0 0 0
1687 19 1 14.147143341303561 23.0360032135162 18.057306631598113 0 0 0
1688 19 1 14.300482425047232 23.657809374688423 19.484028538613092 0 0 0
1689 19 1 15.595289885680081 23.37098946356235 20.250293783283364 0 0 0
1690 19 1 15.689788021166088 23.801957805026028 21.740773777377235 0 0 0
1691 19 1 16.927993027956784 23.347017829992165 22.469177005558436 0 0 0
3912 2 1 3.020425827313941 3.2890453053430613 23.483782967268574 0 0 0
8286 63 1 8.42769923685612 25.629640883056087 17.49381457475965 0 0 0
1708 19 1 3.061269668451703 23.163277230826615 0.6647823933291339 0 0 0
1709 19 1 3.076351671921617 23.339026846555413 2.135223793590476 0 0 0
1710 19 1 4.400153596726411 22.967868548714346 2.8028001916132808 0 0 0
1711 19 1 4.372010648137167 23.299030265085566 4.269758246842827 0 0 0
1712 19 1 5.5683874601518975 22.77026072413777 5.016660542961351 0 0 0
1713 19 1 5.813618940034507 23.27425496777764 6.475643158823684 0 0 0
1714 19 1 6.952414561763335 22.67271841456249 7.278162349914277 0 0 0
1794 35 1 10.173931189957568 25.258635779280535 6.397494396815988 0 0 0
1795 35 1 11.453138712856028 25.689984574893714 7.055200650802553 0 0 0
1796 35 1 11.568306171578168 25.0982814268353 8.512207865456354 0 0 0
1797 35 1 12.813524840136639 25.601193494955393 9.253972174623895 0 0 0
1798 35 1 12.893339755417095 25.158962688155373 10.720575383170873 0 0 0
1799 35 1 14.171320768809453 25.722562088878906 11.257689459876577 0 0 0
1800 35 1 14.467174719687565 25.115184331292518 12.618762547978005 0 0 0
1801 35 1 15.664566593259217 25.799496825065837 13.318895352159378 0 0 0
1802 35 1 16.021536676366974 25.317564808362388 14.746924762021306 0 0 0
1803 35 1 17.183135458810707 26.02323055719714 15.435388492607665 0 0 0
1804 35 1 17.317204913350718 25.457942159780238 16.803154232455455 0 0 0
1805 35 1 18.538808251816967 25.86878572051521 17.563297471233486 0 0 0
8061 62 1 4.6755968144393 23.122564019016973 18.14556075941182 0 0 0
1826 35 1 7.599855015894183 25.88829288970257 0.48697863952065784 0 0 0
1827 35 1 7.745806559904835 25.44525379410361 1.929599574310151 0 0 0
1828 35 1 8.832712554721857 26.133616823844804 2.8074333532728115 0 0 0
1829 35 1 8.84154014343311 25.537708095458346 4.194426594541697 0 0 0
1830 35 1 10.00551070948057 25.939377367288344 5.0262364757388305 0 0 0
1831 4 1 13.59526209862831 1.4420151188555508 3.8079268024750053 0 0 0
1832 4 1 14.620586661800019 0.6884596105245501 4.628314599632979 0 0 0
1833 4 1 14.908588680123893 1.2630283042780708 6.025837912983585 0 0 0
1834 4 1 16.005084199547895 0.5120852999155283 6.764890668967206 0 0 0
1835 4 1 16.141578210911863 1.119198360180861 8.194540858877428 0 0 0
1836 4 1 17.402817155045355 0.5716352125749786 8.868935632810048 0 0 0
1837 4 1 17.57622116992003 1.1026265317073245 10.312708118809526 0 0 0
1880 4 1 12.123898735533533 1.2679575992329497 0.1110369780668779 0 0 0
1881 4 1 12.221984753013855 1.4185481865236131 1.6666544796743916 0 0 0
1882 4 1 13.531761759228987 1.0204742260307509 2.32040797931638 0 0 0
1920 38 1 17.09342506807285 2.9658399099023014 1.754150468811362 0 0 0
1921 38 1 17.8856817864436 3.740758640768011 2.7659687180974637 0 0 0
8060 62 1 3.586246427396821 23.737762440780454 17.165633170876227 0 0 0
2143 38 1 16.538744875171876 3.80123470612987 0.5973343834599217 0 0 0
2144 56 1 13.762844259284845 5.993530231300336 3.5079675254603395 0 0 0
2145 56 1 14.605262234836864 5.196155649714242 4.496258388083827 0 0 0
2146 56 1 15.235281076423 6.048909418690888 5.559520203235746 0 0 0
2147 56 1 16.03588966004032 5.133215028286497 6.4582863266482065 0 0 0
2148 56 1 16.59055660997418 5.899799770749296 7.674150885982683 0 0 0
2149 56 1 17.352657143132905 5.087780489168591 8.73696508589438 0 0 0
2150 56 1 17.851111806973414 5.9830697628713105 9.9390038020447 0 0 0
8059 62 1 3.236337303165449 22.77535720980553 15.934701334612894 0 0 0
2366 56 1 12.302638177591586 5.972195785622957 1.4386032467054546 0 0 0
2367 56 1 13.103272597935062 5.176411235070304 2.396677698938118 0 0 0
2368 26 1 17.100389398987797 7.682054992710075 2.335532883960355 0 0 0
2369 26 1 18.449178360845302 7.631025400678955 2.9016751494167727 0 0 0
8289 63 1 11.049493303316586 25.75903686917533 20.3876959183059 0 0 0
2404 26 1 17.06579569833927 7.557382248494716 0.8115805327568213 0 0 0
2442 27 1 13.688265171860811 10.57666302454584 4.153898928261101 0 0 0
2443 27 1 14.783128152276937 9.971102467378646 5.021318253163784 0 0 0
2444 27 1 15.162014605670947 10.649117401840343 6.33962242194496 0 0 0
2445 27 1 16.132697177491615 9.886090792085598 7.208705041886689 0 0 0
2446 27 1 16.50778904650003 10.547169599081421 8.529516525163315 0 0 0
2447 27 1 17.70647229862028 9.959053723378988 9.289846947548758 0 0 0
2448 27 1 18.10903307697772 10.396352312959896 10.711088625849703 0 0 0
2663 27 1 12.490281830921614 10.370462818998597 0.41125903823150567 0 0 0
2664 27 1 12.531594745049992 10.714769557661487 1.8646466074866492 0 0 0
2665 27 1 13.72551346505744 10.241960841513524 2.6775492129098803 0 0 0
2666 27 1 17.014834286995683 11.696824571834615 2.1308994844104476 0 0 0
2667 27 1 18.225014367050427 12.192359240967326 2.921776477364884 0 0 0
3442 35 1 18.269962883962766 25.073064953974846 4.300944051554019 0 0 0
2889 27 1 16.95091076982964 12.090329333504254 0.6164673969447279 0 0 0
2890 13 1 13.75543367578397 14.594289424153683 4.055174847050389 0 0 0
2891 13 1 15.14272903405974 14.377178891497143 4.662713141040706 0 0 0
2892 13 1 15.09394013832203 14.584309531454322 6.183371446068011 0 0 0
2893 13 1 16.477102832552323 14.432567038309191 6.802325123864861 0 0 0
2894 13 1 16.41132973788868 14.486000732976075 8.310098739720164 0 0 0
2895 13 1 17.778979171920934 14.200078248506903 8.888444828874306 0 0 0
2896 13 1 17.796038833139644 14.43650144380227 10.407826226275407 0 0 0
2924 13 1 12.239114604967716 14.3262775975312 0.31693481915706484 0 0 0
2925 13 1 12.311299361024538 14.675161242280035 1.823769394322639 0 0 0
2926 13 1 13.618989135558856 14.25688568747112 2.555591541315947 0 0 0
2977 29 1 17.218556960262692 16.137823889098975 1.245858131574189 0 0 0
2978 29 1 17.56025757419996 17.16742911454954 2.3154631919321487 0 0 0
1806 35 1 18.514754479631417 25.477384181148487 19.053754653224992 0 0 0
3013 29 1 16.183984917065995 16.805943811591195 0.3555120395262397 0 0 0
3051 31 1 13.693759495845791 19.019596476111357 4.375400215593166 0 0 0
3052 31 1 14.866004650837734 18.39075836817745 5.19970507578804 0 0 0
3053 31 1 15.184156953400931 18.96982457219066 6.576147493493613 0 0 0
3054 31 1 16.201031722832404 18.300663154367705 7.4905463521897575 0 0 0
3055 31 1 16.58960470711758 19.195068970508142 8.670250164154174 0 0 0
3056 31 1 17.534162403760124 18.46314864319305 9.61249979073467 0 0 0
3057 31 1 18.18109758432157 19.187413249484823 10.7634014299169 0 0 0
3085 31 1 12.31673171815262 18.823423488964973 0.7682546666378414 0 0 0
3086 31 1 12.375936720917698 19.207295891449142 2.227716770144208 0 0 0
3087 31 1 13.538488213376517 18.53541101287222 2.913326977310802 0 0 0
3125 32 1 16.444360024764315 21.08664141761739 1.6453052014263498 0 0 0
3126 32 1 17.799580870125894 21.193466146347408 2.301408529964768 0 0 0
6792 23 1 11.986092412480794 8.236308688929583 23.308098307144576 0 0 0
3161 32 1 16.52129953910091 21.377227557958957 0.10516710158565726 0 0 0
3216 43 1 13.375865698865027 23.853475099190895 3.9534810753102336 0 0 0
3217 43 1 14.287084300304063 23.020934644580954 4.803912233197573 0 0 0
3218 43 1 14.716835263151147 23.6504789487244 6.130171081825009 0 0 0
3219 43 1 15.667810881785988 22.768378148116238 6.9569879378869555 0 0 0
3220 43 1 16.003247082752047 23.487932359832257 8.27164621640758 0 0 0
3221 43 1 17.299411294477096 22.933854127278956 8.8979182263577 0 0 0
3222 43 1 17.597213442834633 23.61193197019848 10.206499237107302 0 0 0
6295 63 1 0.1385429873791014 3.612883887946071 2.671525812531576 1 0 0
3438 43 1 12.10306564014361 23.994910283274752 1.728047479238464 0 0 0
3439 43 1 12.880674869294403 23.116505765165257 2.7213939248902177 0 0 0
3440 35 1 16.817225021017997 25.12553387413267 2.231397065396239 0 0 0
3441 35 1 17.867999639377064 25.86469156126433 3.0675076430808246 0 0 0
1922 38 1 18.342929643372486 2.8445264936004997 3.9203526391832857 0 0 0
8057 62 1 2.0415686561921893 22.58346165301085 13.771913381009519 0 0 0
3909 2 1 1.6836785839912516 3.6866278268931394 19.8836476281505 0 0 0
3910 2 1 1.5604630465813856 3.6333623328177813 21.409057500044515 0 0 0
3911 2 1 2.9444196230405932 3.7889977290162564 22.049470601776555 0 0 0
1465 18 1 18.87586143008676 21.129753723214378 17.942185463829894 0 0 0
8285 63 1 8.297855055448249 25.48468117229992 16.0099192203119 0 0 0
4357 39 1 1.820515131433263 8.222625662745509 19.79044342982401 0 0 0
4358 39 1 1.9411469226125093 7.5638468665407625 21.149728595831164 0 0 0
4359 39 1 3.011793272337838 8.25598384357689 22.03648392780966 0 0 0
4360 39 1 3.2585697394959956 7.53047598994186 23.328744580878013 0 0 0
2441 64 1 15.634840917852001 7.651817778474053 0.183485650674513 0 0 1
4805 42 1 1.5989469416288509 12.155075448700059 19.842950799554753 0 0 0
4806 42 1 1.489690496780495 11.956634772141795 21.353734310637343 0 0 0
4807 42 1 2.8140148435689434 12.22478634468367 22.04945170420533 0 0 0
4808 42 1 2.881547512199323 12.101942389684746 23.556258452021073 0 0 0
8284 63 1 6.872779508311006 25.56233695639822 15.453169144251603 0 0 0
5250 43 1 1.474300383338176 16.87389988121449 20.11933807436133 0 0 0
5251 43 1 1.5833480274597505 16.110013385836034 21.45640846170379 0 0 0
5252 43 1 2.768101539353819 16.632732042980948 22.201027843366308 0 0 0
5253 43 1 2.939804048188727 16.285821272768512 23.647432439493613 0 0 0
6823 56 1 0.6774333614353905 9.696114290091595 11.028880018566902 0 0 0
5548 46 1 1.537832322335379 21.037138202976227 19.732306303584803 0 0 0
5549 46 1 1.7951857089627303 20.667051563079397 21.20737181663084 0 0 0
5550 46 1 3.147093532557543 21.038002329472885 21.827829328269736 0 0 0
5551 46 1 3.2403430043746306 21.096528691212477 23.342683815269293 0 0 0
8288 63 1 9.78283060132916 25.901029376148273 19.623977192995806 0 0 0
5859 29 1 1.32643999551204 25.987490538880998 20.290784786794752 0 0 0
5860 29 1 1.4244213423241914 25.34802069003354 21.634956770134927 0 0 0
5861 29 1 2.638220784072454 25.76608827018673 22.502174845408323 0 0 0
2370 26 1 18.43065804320518 7.787465780955628 4.416638667490567 0 0 0
8283 63 1 6.876885764873723 25.428712827733396 13.97397433491187 0 0 0
6077 9 1 1.0121295948058986 0.8351307601073144 11.810910563561503 0 0 0
6078 9 1 0.9296388266563473 0.45427323382378076 13.263041536570531 0 0 0
6079 9 1 2.180046247146863 0.821923749624497 14.010980378514942 0 0 0
6080 9 1 2.2017496527436844 0.7725709949443448 15.567313464093862 0 0 0
6081 9 1 3.6234802823889156 1.1158352642516647 16.047006962717273 0 0 0
6082 9 1 3.7097880562485726 1.2389014611498863 17.56152651194824 0 0 0
6083 9 1 5.118863403618185 1.4218707621423994 18.1881615270985 0 0 0
6084 9 1 5.028251019062202 1.6006849096480158 19.67934152263862 0 0 0
6085 9 1 6.204889125550126 1.2511685840857703 20.51997974483155 0 0 0
6086 9 1 6.033717398998178 1.503884556321124 22.043937611116426 0 0 0
6087 9 1 7.239208717398911 1.0366429667684245 22.856066800364314 0 0 0
3127 32 1 17.694361488410568 20.838663173741796 3.7840165467048172 0 0 0
8275 63 1 1.3215668984061621 25.255151676658837 5.179308969484475 0 0 0
6297 63 1 1.4519159769829582 3.5536207781509392 4.8657278338333025 0 0 0
6298 63 1 1.6118964848263193 2.8412063989102303 6.226441224074904 0 0 0
6299 63 1 2.831791048024878 3.2962162411848235 7.00434058711286 0 0 0
6300 63 1 2.8483670452597285 2.886929384661102 8.430106087522569 0 0 0
6301 63 1 4.095820929613794 3.327589326889913 9.211032596947506 0 0 0
6302 63 1 4.244111723185569 2.7391280900896713 10.677437938254126 0 0 0
6303 63 1 5.41914688900619 3.291134367707953 11.462489519334351 0 0 0
6304 63 1 5.494419105489098 2.7377403059122107 12.87233147836872 0 0 0
6305 63 1 6.675982318504069 3.4579598332987085 13.57277561315828 0 0 0
6306 63 1 7.006272444274182 2.924766075495574 14.979032584059981 0 0 0
6307 63 1 8.217522280520136 3.493308206758116 15.6315169974838 0 0 0
6308 63 1 8.391479581379329 3.0310018302125727 17.104636574685205 0 0 0
6309 63 1 9.526778440548778 3.6047602257574165 17.912233140594463 0 0 0
6310 63 1 9.711072648213495 3.202464139340538 19.32765908907278 0 0 0
6311 63 1 11.004282759707007 3.739686522371012 20.007873713480638 0 0 0
6312 63 1 11.154094417693887 3.349068448127249 21.41466032642939 0 0 0
6313 63 1 12.468164777840968 3.681163644511881 22.106248683461374 0 0 0
6296 63 1 0.177532781910016 3.221470015803628 4.155659869782288 1 0 0
8056 62 1 1.1486845351469706 23.230356931152716 12.703056901628411 0 0 0
6525 54 1 0.9794860356806725 4.97118842002431 11.023588407555541 0 0 0
6526 54 1 1.1831823652379914 5.54625524625785 12.406147452433986 0 0 0
6527 54 1 2.3847353204496207 5.031192610694603 13.206161867915801 0 0 0
6528 54 1 2.3582498648471946 5.537116844875764 14.641790119040458 0 0 0
6529 54 1 3.697828133591083 5.195993425515919 15.429093165652478 0 0 0
6530 54 1 3.876090269423811 6.030228191886359 16.71076349303842 0 0 0
6531 54 1 5.005451320686412 5.4878110295907705 17.601874648553427 0 0 0
6532 54 1 5.0366639856801045 6.083522206169016 19.000293301910165 0 0 0
6533 54 1 6.308810418061456 5.772232908468284 19.760126395978162 0 0 0
6534 54 1 6.411602222971022 6.133468722988514 21.239138205488423 0 0 0
6535 54 1 7.585389278920122 5.555251826144682 22.019369420266248 0 0 0
8055 62 1 0.8388083076702899 22.468786330645894 11.375777862005009 0 0 0
8291 63 1 12.324488565738637 25.60378693934501 22.505562919741408 0 0 0
6775 23 1 1.3248294495265358 8.109293812175892 4.338147296288174 0 0 0
6776 23 1 1.6555644039547404 7.693428772063912 5.779352932516507 0 0 0
6777 23 1 2.8341598507492116 8.228658704668671 6.564987375369097 0 0 0
6778 23 1 2.819853485256088 7.622192979981371 7.9848641332822545 0 0 0
6779 23 1 3.7226994749014373 8.256203783402926 9.043592680465073 0 0 0
6780 23 1 4.067284248347305 7.300399750382767 10.14963391388746 0 0 0
6781 23 1 5.1871300065967905 7.853135374410131 11.05176474805228 0 0 0
6782 23 1 5.53917397548676 7.06029044698903 12.300458673999339 0 0 0
6783 23 1 6.596668060266582 7.77602489014139 13.097252266353566 0 0 0