LAMMPS data file via write_data, version 29 Oct 2020, timestep = 32000000

10752 atoms
2 atom types
10752 bonds
3 bond types
10752 angles
3 angle types
10752 dihedrals
3 dihedral types

-1.4019591925125496e-01 3.1008115919238300e+01 xlo xhi
-1.2113307625790526e-01 2.6791853076229280e+01 ylo yhi
 2.6012859712448375e+01 2.5698650028692305e+02 zlo zhi

Masses

1 14
2 15

Pair Coeffs # lj/cut/omp

1 0.0914 3.95
2 0.1947 3.75

Bond Coeffs # harmonic/omp

1 449.5 1.53
2 449.5 1.53
3 449.5 1.53

Angle Coeffs # harmonic/omp

1 62.0967 114
2 62.0967 114
3 62.0967 114

Dihedral Coeffs # opls/omp

1 1.411 -0.271 3.145 0
2 1.411 -0.271 3.145 0
3 1.411 -0.271 3.145 0

Atoms # molecular

1            1            1      26.7412      24.6258       27.602
2            1            1      25.6456      24.6109      28.6929
3            1            1      25.6792      25.8542      29.5383
4            1            1       24.637       25.796      30.6333
5            1            1      24.7696      24.5911      31.7014
6            1            1      23.6971      24.7412      32.7633
7            1            1      23.9837      23.6496      33.7662
8            1            1      22.8258      23.3544      34.6505
9            1            1      23.2691      22.4669      35.8086
10            1            1      22.1563      22.4394      36.8552
11            1            1       22.313      21.2836      37.8061
12            1            1       21.492      21.4448      39.0344
13            1            1      21.7196      20.1323      39.8266
14            1            1      20.8178      19.9126      41.0542
15            1            1      21.2932      18.7566      41.8652
16            1            1      22.1189      19.4988      42.9194
17            1            1      22.8327       18.447      43.8283
18            1            1      23.4819      19.0928       45.005
19            1            1      24.3487      18.2846      45.9168
20            1            1      24.8144      19.1274      47.1144
21            1            1      25.4678       18.391      48.2316
22            1            1      25.9135       19.314      49.3813
23            1            1      26.4875      18.4906      50.5047
24            1            1      27.3324      19.3621      51.3644
25            1            1      28.0505      18.5113      52.3667
26            1            1      28.8735      19.4246       53.319
27            1            1      27.8035      20.0267      54.1583
28            1            1      28.2739      20.6986      55.4288
29            1            1      27.1709       21.286      56.2682
30            1            1      27.6791      22.0015      57.5675
31            1            1      26.6262      22.6751      58.4562
32            1            1      27.2916      23.3447      59.6937
33            1            1       26.258      23.7218      60.7836
34            1            1      26.7107      24.5689      61.9626
35            1            1      25.6884      24.7484      63.0284
36            1            1      26.0791      25.8414      64.0027
37            1            1      27.1464      25.2878      64.9414
38            1            1      27.6811      26.2593      66.0191
39            1            1      28.6173      25.5702      67.0094
40            1            1      29.0655      26.5369      68.0966
41            1            1       29.912      25.9303      69.1834
42            1            1      30.5408     0.127842      70.0496
43            1            1     0.209509      26.3009      71.1119
44            1            1     0.747503     0.361437      72.1277
45            1            1      1.78818      26.4737      72.9696
46            1            1      2.25337     0.372011      74.1158
47            1            1      3.24237      26.5267      74.9481
48            1            1      3.76412     0.444219      76.1111
49            1            1      2.74681     0.675252      77.1346
50            1            1      3.22621      1.69205      78.1773
51            1            1      2.24964      2.00092      79.3393
52            1            1      2.81154      2.93039       80.339
53            1            1      1.75959      3.18871      81.3697
54            1            1       2.1382      4.33746      82.2867
55            1            1      1.20453      4.49254      83.4305
56            1            1      1.64541      5.54987      84.3619
57            1            1     0.699517      5.26696      85.5623
58            1            1     0.168284      6.48588      86.3017
59            1            1      1.21925      7.29847      86.9517
60            1            1      1.82831      6.38499      87.9851
61            1            1      2.96919       6.9816      88.7566
62            1            1      3.58372      6.14034      89.9073
63            1            1      4.46813      7.09409      90.6932
64            1            1      4.95417      6.50094      92.0507
65            1            1      5.82869      7.39278      92.8693
66            1            1      6.19598      6.46145      94.0785
67            1            1      7.10583      7.01479      95.2275
68            1            1      7.42975      5.99754      96.3129
69            1            1      6.36333      5.60344      97.2961
70            1            1      6.85908      4.48395      98.2432
71            1            1      5.74691      4.15734      99.2477
72             1             1       6.33317       3.07265       100.128
73             1             1       5.47323       2.81242       101.412
74             1             1       5.83038       1.91105       102.534
75             1             1       4.81279       1.58642       103.585
76             1             1       5.12793      0.440694       104.575
77             1             1       4.27702      0.489172       105.851
78             1             1       4.33997       26.1223        106.66
79             1             1       3.58019       26.1083       107.988
80             1             1       3.82549       24.8794       108.813
81             1             1       2.90998       24.8145       109.981
82             1             1        3.4326       23.7213       110.918
83             1             1       2.35316       23.2165       111.884
84             1             1       3.05603       22.5613        112.99
85             1             1       4.04166       23.3245       113.787
86             1             1       4.48813       22.4695       114.935
87             1             1       5.31273       23.3449       115.894
88             1             1       6.11799       22.5049        116.81
89             1             1       6.81548       23.2195       117.895
90             1             1       7.69966       22.2117       118.652
91             1             1       8.21677       22.9928       119.895
92             1             1       9.06894       22.2305       120.892
93             1             1       9.53593       22.9734       122.175
94             1             1       8.40636       23.4532       123.052
95             1             1       8.84244       24.3618       124.241
96             1             1       7.67417       24.8382       125.008
97             1             1        8.1885       25.7086       126.102
98             1             1       7.23284       25.9818       127.189
99             1             1       7.73662     0.0284542       128.216
100             1             1       6.63414      0.406953       129.189
101             1             1       7.23561       1.35306       130.265
102             1             1       6.22901       1.66176       131.328
103             1             1       6.72255       2.68777       132.346
104             1             1       7.50709       1.94996       133.452
105             1             1       7.94107        2.7499       134.699
106             1             1       8.97265       2.04364       135.589
107             1             1       9.71254        3.0159       136.487
108             1             1       10.5326       2.25744        137.55
109             1             1       11.1108       3.18032       138.609
110             1             1       11.5831       2.49767       139.837
111             1             1       12.3965       3.33672       140.756
112             1             1       12.9186       2.62181       141.957
113             1             1        13.328       3.55478           143
114             1             1       14.0478       2.96068       144.274
115             1             1       14.8098       3.97273       145.109
116             1             1       15.6831       3.27727       146.067
117             1             1       14.7623       2.43255       146.896
118             1             1       14.0913       3.30748       147.992
119             1             1       13.4991       2.37711       149.026
120             1             1       12.7813       3.16602       150.111
121             1             1       12.2083       2.24041       151.118
122             1             1       11.2982       3.00386       152.093
123             1             1       10.6653       2.14483       153.206
124             1             1       9.85066       2.97846       154.177
125             1             1       9.13527       2.18853       155.268
126             1             1       8.33991       3.01736       156.216
127             1             1       7.75035        2.1351       157.407
128             1             1       7.17141       2.92928       158.528
129             1             1       6.52073       2.10592       159.595
130             1             1        5.7156        2.9673       160.609
131             1             1       4.97245       2.11903       161.649
132             1             1       4.49478       2.98633       162.826
133             1             1       3.64375       2.03778       163.683
134             1             1        2.8629       2.75246       164.773
135             1             1       3.69158       3.21898       165.912
136             1             1       2.79912       3.98216       166.944
137             1             1       3.39239       4.64532       168.187
138             1             1       2.45433       5.45021       169.038
139             1             1       3.25265       5.97141       170.208
140             1             1       2.51886       7.03529       171.028
141             1             1       3.03243       7.05187       172.481
142             1             1       2.68176       8.31021       173.183
143             1             1       2.48529       8.03626       174.682
144             1             1       1.22235       7.31765       175.098
145             1             1       1.01014       7.06982       176.568
146             1             1       30.9052       6.30741       176.803
147             1             1       30.5558       6.16396       178.271
148             1             1       30.8966       7.45244       179.061
149             1             1       30.2762       7.47378       180.462
150             1             1       30.5439       8.80461       181.144
151             1             1       29.6957       9.01765       182.408
152             1             1       30.1447       10.1014       183.386
153             1             1       29.1098       10.5207       184.474
154             1             1       29.7676       11.1055       185.727
155             1             1        30.567       10.1297       186.482
156             1             1      0.123239       10.8414       187.638
157             1             1      0.803275       9.82181       188.565
158             1             1       1.66163        10.656       189.543
159             1             1       2.32167       9.74985       190.595
160             1             1       3.12455         10.56        191.66
161             1             1       3.67628       9.59172       192.698
162             1             1       2.49213       8.89217       193.315
163             1             1       3.04446        8.2029       194.534
164             1             1       1.96833       7.77934       195.491
165             1             1       2.56612       7.02687       196.665
166             1             1       1.45274       6.92468        197.77
167             1             1       1.87288       6.00483       198.859
168             1             1      0.852244       5.60331       199.905
169             1             1       1.43068       4.54829       200.789
170             1             1       2.36693       5.11906       201.914
171             1             1       2.89956       4.02667       202.822
172             1             1       3.53787       4.69042       204.043
173             1             1       4.02396       3.59409       205.054
174             1             1       5.12449       4.09877       206.033
175             1             1       5.53367       3.16537       207.192
176             1             1       4.31149       3.04095       208.131
177             1             1       4.54391       1.91121       209.088
178             1             1       3.48246       1.72951       210.195
179             1             1       3.89423      0.641776       211.242
180             1             1       2.73513      0.415511       212.217
181             1             1       3.07325       26.1627       213.255
182             1             1       1.91276        26.164       214.288
183             1             1       2.00364       25.1065       215.386
184             1             1      0.876857       25.1809        216.36
185             1             1       1.26796       26.0222       217.508
186             1             1     0.0927252       26.4419       218.317
187             1             1      0.484627      0.417048       219.512
188             1             1       30.5492      0.641958       220.496
189             1             1       30.8663       1.74507       221.509
190             1             1       29.6847       1.95551       222.462
191             1             1       29.8651       2.90605        223.61
192             1             1       28.7474       2.68846       224.621
193             1             1       28.6804       3.85797       225.583
194             1             1        27.632       3.76205       226.649
195             1             1       27.9833       2.76746        227.75
196             1             1       26.7418       2.52995       228.612
197             1             1       27.1354       1.72228       229.833
198             1             1       26.0253       1.12146       230.704
199             1             1       26.7758     0.0828643       231.538
200             1             1       27.4721      0.908673       232.627
201             1             1       27.8633    -0.0827376       233.688
202             1             1       28.8859      0.568077        234.61
203             1             1       29.0168       26.5581       235.808
204             1             1       29.9718     0.0852782       236.834
205             1             1       30.7186       25.9214       237.628
206             1             1      0.199198       26.5149       238.859
207             1             1      0.490644       25.5526       239.953
208             1             1        1.6011       26.1872       240.739
209             1             1       2.17055       25.2483       241.764
210             1             1       1.16745       24.9912       242.926
211             1             1       1.72509       23.9969       243.916
212             1             1      0.792239       23.6793       245.031
213             1             1       1.44552       22.9459       246.234
214             1             1       0.25548       22.4657       246.979
215             1             1      0.589576       21.5937       248.218
216             1             1       30.4856       21.5802         249.1
217             1             1       30.5925        20.584       250.265
218             1             1       29.3827       20.3329       251.176
219             1             1       29.1655       21.4764       252.208
220             1             1       28.0526       21.2573        253.25
221             1             1       28.2475       22.4162       254.221
222             1             1       27.4165        22.285       255.468
223             1             1       27.5059       23.4778       256.412
224             1             1       26.5918       23.4361       26.6518
225             2             1      0.748285       24.5146       255.565
226             2             1      0.620933        25.779       256.348
227             2             1       30.8685       25.5486       26.6262
228             2             1       30.8897     -0.143875       27.4772
229             2             1       29.6742       26.8394       28.3722
230             2             1       29.7188       1.03623       29.3597
231             2             1       28.5965      0.908137       30.3131
232             2             1       28.8516      0.101872       31.5645
233             2             1       27.5642    -0.0569333       32.4291
234             2             1       27.8831       26.0622        33.671
235             2             1       26.6855       25.8686       34.6019
236             2             1       27.0213       25.0144       35.7329
237             2             1       25.9153        24.359       36.5987
238             2             1       26.4954       23.7535       37.9002
239             2             1       25.4567       23.1982       38.8737
240             2             1       25.8832       22.3098       40.0235
241             2             1       24.6101       22.1223       40.9217
242             2             1       24.8679       21.1378       42.0205
243             2             1       25.6586       21.8744       43.0413
244             2             1       26.1557       20.9134       44.1094
245             2             1       27.1797       21.7317       44.9195
246             2             1       27.8592       20.9979        46.053
247             2             1       28.5699       21.8845       47.0786
248             2             1        29.252       21.0039       48.1399
249             2             1       29.9546       21.8028       49.1806
250             2             1        30.651        20.882       50.1626
251             2             1      0.120183       21.7009       51.3032
252             2             1       1.07526       20.9108       52.1693
253             2             1       1.06589        21.355       53.6342
254             2             1       1.71943       22.6983       53.7288
255             2             1       1.88819       23.1263       55.1587
256             2             1      0.582694       23.0854       55.8781
257             2             1      0.670481       23.5305       57.3231
258             2             1       1.24173       24.9321       57.6251
259             2             1      0.883553       25.4828       58.9685
260             2             1       30.6177       25.1283       59.4239
261             2             1       30.3557       25.7701       60.7559
262             2             1       30.8986      0.222227       60.8705
263             2             1       30.9448       0.61663        62.236
264             2             1       29.6613      0.411183       63.0919
265             2             1       29.8114        1.4228       64.2638
266             2             1     -0.153945      0.966343       65.1698
267             2             1      0.520763        2.0116       66.1444
268             2             1       1.26702       1.24388       67.1919
269             2             1       1.69004       2.05116        68.412
270             2             1       2.76609       1.44243       69.2513
271             2             1       3.56473       2.26066       70.2275
272             2             1       4.58538       1.52287       71.1104
273             2             1       4.90585       2.28324        72.364
274             2             1       5.76656       1.49769       73.3304
275             2             1       6.14211       2.20937       74.6807
276             2             1       7.15498       1.45632       75.4459
277             2             1       7.74291       2.46542        76.482
278             2             1       6.66646       3.00524       77.4321
279             2             1       7.10423       3.99477       78.5188
280             2             1       6.10695       4.29726       79.5783
281             2             1       6.56813       5.25628       80.6061
282             2             1       5.59984        5.7678       81.6776
283             2             1       6.21052       6.65152       82.7738
284             2             1       5.07462       6.97236        83.796
285             2             1        5.4907       8.09464       84.7287
286             2             1       4.52758       8.34119       85.8771
287             2             1       4.98945       9.35492       86.9357
288             2             1       6.15709       8.67967       87.4983
289             2             1       6.58426       9.57784       88.6738
290             2             1       7.33168       8.73967       89.6217
291             2             1       7.93096       9.58673       90.7204
292             2             1       8.54656       8.58914       91.6469
293             2             1       9.33844       9.32167        92.708
294             2             1       9.66214       8.28204       93.8191
295             2             1       10.6866       9.01878       94.6747
296             2             1       11.1949       8.24801       95.9272
297             2             1       10.1866       7.90501       96.9997
298             2             1       10.6968       6.99086        98.129
299             2             1       9.49465       6.57947       98.9821
300             2             1        10.028       5.82238       100.194
301             2             1       8.89617        5.3077       101.044
302             2             1       9.52474        4.4759       102.075
303             2             1       8.45166       3.96055       103.023
304             2             1       9.04918         3.324       104.326
305             2             1       8.03214       2.67237       105.229
306             2             1       8.64357       1.89883       106.442
307             2             1        7.5933       1.41847        107.38
308             2             1       8.10246      0.472867       108.456
309             2             1       6.95163    -0.0386459       109.249
310             2             1       7.39656       26.1685        110.48
311             2             1       6.33588       25.7178       111.512
312             2             1       6.78574       24.7403       112.587
313             2             1       7.71874       25.4581       113.509
314             2             1       8.50484        24.482       114.351
315             2             1       9.30855       25.1689       115.454
316             2             1       9.85003       24.2891       116.557
317             2             1        10.548       25.0967       117.656
318             2             1       11.2805       24.2885       118.725
319             2             1       11.9192        25.203       119.788
320             2             1       12.6061       24.3004       120.786
321             2             1       13.2742       25.0918       121.933
322             2             1       12.2017       25.5876       122.916
323             2             1       12.6705       26.3581        124.12
324             2             1       11.5383       26.8605       125.014
325             2             1       12.1522      0.552855       126.218
326             2             1        11.218        1.2343       127.234
327             2             1        11.725       2.26762       128.207
328             2             1        10.706       2.65529       129.302
329             2             1       11.2183       3.73032       130.241
330             2             1       10.1065       3.90475       131.208
331             2             1       10.5036       4.82685       132.331
332             2             1       11.3064       4.08295         133.4
333             2             1       12.1177       5.00036       134.272
334             2             1       12.8405        4.1937        135.35
335             2             1       13.3311       5.19516       136.454
336             2             1        14.123        4.5402       137.579
337             2             1       14.4587       5.48424       138.754
338             2             1       15.5529       4.77993       139.687
339             2             1       15.9977       5.56165       140.941
340             2             1       17.0773       4.86659       141.757
341             2             1       17.2013       5.61777       143.034
342             2             1       18.4547       5.25666       143.775
343             2             1       18.5223        6.0978       145.061
344             2             1       19.4851       5.50305       146.096
345             2             1       18.8045       4.56684       147.057
346             2             1       17.9571       5.41647        148.07
347             2             1       17.3999       4.53713       149.249
348             2             1       16.4103       5.38294       150.028
349             2             1       15.8868       4.53481       151.195
350             2             1       15.1971       5.22772       152.377
351             2             1       14.5754       4.54294       153.584
352             2             1       13.7063       5.39575       154.458
353             2             1       13.0925       4.55339       155.584
354             2             1       12.0221        5.2329       156.392
355             2             1       11.5798       4.35956       157.546
356             2             1       10.5103       5.03559       158.397
357             2             1        10.197       4.23394       159.649
358             2             1       9.49117       5.05674        160.75
359             2             1       8.63739       4.37004       161.721
360             2             1       8.13709       5.14195       162.941
361             2             1       7.42976       4.28564       163.944
362             2             1       6.60201       4.93549        165.05
363             2             1       7.42794       5.78548       166.047
364             2             1       6.62175       6.34782       167.202
365             2             1       7.28457       7.34382       168.118
366             2             1       6.31884        7.6434       169.252
367             2             1       6.86751       8.51038       170.371
368             2             1       5.86417       8.83597       171.456
369             2             1         6.437       9.81741        172.48
370             2             1       5.52723       10.1787       173.662
371             2             1       6.24065       11.0266       174.704
372             2             1       5.45624       11.3013       175.998
373             2             1       4.89042       10.0718       176.731
374             2             1       4.02371        10.317       177.969
375             2             1       3.46154       9.01549       178.599
376             2             1       2.55869        9.4477       179.769
377             2             1       3.21718       10.4133       180.763
378             2             1       2.17137        10.787       181.809
379             2             1       2.78103       11.5533       182.994
380             2             1       1.91169       11.8224       184.209
381             2             1       2.56846       12.8657       185.132
382             2             1       3.40461       12.0578       186.196
383             2             1       4.01257        13.019       187.162
384             2             1       4.81177       12.1366       188.148
385             2             1        5.4051       12.9482       189.256
386             2             1       6.11658       12.0759       190.313
387             2             1        6.7313       12.9185       191.451
388             2             1       7.21418       12.1037       192.649
389             2             1       6.11624       11.7355       193.636
390             2             1       6.82229       10.7986       194.536
391             2             1       5.87942       10.2289       195.597
392             2             1       6.35649       9.20123       196.628
393             2             1       5.25725       8.96591        197.66
394             2             1       5.65539       8.07913        198.82
395             2             1       4.55231        7.8272       199.755
396             2             1         4.871       6.94089       200.909
397             2             1       6.07782       7.50392       201.668
398             2             1       6.27874       6.57936       202.822
399             2             1       7.55257       6.86511       203.593
400             2             1       7.65761       5.79398       204.621
401             2             1       8.82533         5.918       205.648
402             2             1       8.96473       4.89524       206.781