LAMMPS data file via write_data, version 23 Jun 2022, timestep = 11111117

9706 atoms
2 atom types
9690 bonds
3 bond types
9674 angles
3 angle types
9658 dihedrals
3 dihedral types

0 36.89775039 xlo xhi
0 26.67072 ylo yhi
11.086243344646718 225.6653610553248 zlo zhi
0 6.7511262656037 0 xy xz yz

Masses

1 14
2 15

Pair Coeffs # lj/cut/omp

1 0.0914 3.95
2 0.1947 3.75

Bond Coeffs # harmonic/omp

1 449.5 1.53
2 449.5 1.53
3 449.5 1.53

Angle Coeffs # harmonic/omp

1 62.0967 114
2 62.0967 114
3 62.0967 114

Dihedral Coeffs # opls/omp

1 1.411 -0.271 3.145 0
2 1.411 -0.271 3.145 0
3 1.411 -0.271 3.145 0

Atoms # molecular

1 3 1 6.81975617010409 1.538608875573777 16.502512530426436 0 0 0
2 3 1 7.193600937442025 0.8111572386085542 17.782144440309068 0 0 0
3 3 1 8.077826406336445 1.630364822837726 18.74602485046359 0 0 0
4 3 1 8.573710736698658 0.6417860565472969 19.81036048190636 0 0 0
5 3 1 9.58906640538054 1.3730249145340578 20.725552274433245 0 0 0
6 3 1 10.277600449459097 0.46051944481969515 21.682451363371698 0 0 0
7 3 1 11.245431724519767 1.0348476853995192 22.720411693269572 0 0 0
8 3 1 11.791853776370413 0.0960642886972303 23.77221693056366 0 0 0
9 3 1 12.595232253919471 0.7362126214043434 24.933150661609858 0 0 0
10 3 1 13.351625048475567 26.42786290023696 25.839252179474762 0 -1 0
11 3 1 14.1968696990068 0.43958300597620786 26.902916486737915 0 0 0
12 3 1 14.757978868078418 26.330990305072945 28.047371075215633 0 -1 0
13 3 1 15.770685413094283 0.44773959671021096 28.915356287664796 0 0 0
5554 40 1 3.380198565239894 6.712348543381283 32.41390264555025 0 0 0
602 4 1 2.5947945633025977 5.727007793512188 11.575183739165151 0 0 0
8578 30 1 1.4547420441211747 14.252649920065187 22.93898193222998 0 0 0
318 59 1 14.392624047482288 2.571858477440421 21.884774321657957 0 0 0
1878 11 1 4.833124607103892 19.26531806552134 14.51716604930209 0 0 0
9634 64 1 2.271296127457198 25.317539705298383 17.56505217872356 0 0 0
607 6 1 7.948675717837452 9.048570174477343 12.46460447280255 0 0 0
308 59 1 6.977607051836808 3.4011457894034356 11.459242009642807 0 0 0
223 3 1 5.031408089829247 1.587821920932905 14.599603771899757 0 0 0
224 3 1 5.799650343165031 0.7654248162253748 15.700563463449559 0 0 0
9317 3 1 1.7813672200949404 21.266634268133437 16.399469731883627 0 0 0
4535 31 1 16.965886168773768 21.530514495884642 12.571015799055079 0 0 1
5994 25 1 0.8725471900403283 11.028807384263574 27.86869793563365 1 0 0
2052 13 1 17.354345875422325 22.192890379503346 32.13751226860343 0 0 0
1044 7 1 2.6687715990823264 10.07793394963873 11.32343991799572 0 0 1
309 59 1 8.063946363173798 4.020573966029629 12.333343720282986 0 0 0
310 59 1 8.623490191060675 3.198306062623695 13.50973637374753 0 0 0
311 59 1 9.722645603992431 3.9629799493528326 14.236932780592323 0 0 0
312 59 1 10.407123440770631 3.210016951637484 15.36449577864327 0 0 0
313 59 1 11.172708533157028 4.005909112773096 16.43600940464996 0 0 0
314 59 1 11.718732632892262 2.9668692992538106 17.49054754775194 0 0 0
9648 64 1 12.496292417886314 24.388648599448157 32.13272136473745 0 0 0
9023 61 1 1.5749970928016257 18.71257168205692 23.00240829545185 1 0 0
6380 36 1 2.1715235507930744 15.534953282871548 30.084433708951238 0 0 0
7493 64 1 4.928685674627979 0.5573146044303247 26.767178705283385 0 0 0
8805 59 1 8.926710398759786 16.252567929507748 27.31229822688647 0 0 0
1581 45 1 6.76953135610597 16.914380596856503 11.66067895672245 0 0 1
1064 60 1 17.059992472713773 11.56134662046171 26.223389863647114 0 0 0
383 4 1 7.109102761317987 5.929148946025814 16.342192981406146 0 0 0
384 4 1 7.507230625294174 5.227397963888158 17.618033991024973 0 0 0
385 4 1 8.613780061070974 5.8008655555454975 18.479122193011737 0 0 0
386 4 1 9.113539964015226 5.078147630809573 19.749238327944298 0 0 0
387 4 1 10.165386321663894 5.820367949158115 20.534452643763213 0 0 0
388 4 1 10.609036151544123 4.925579225711805 21.694196115941388 0 0 0
389 4 1 11.488609902775005 5.667319919261176 22.750271412078142 0 0 0
390 4 1 11.837068349669792 4.764953250340704 24.022424336597396 0 0 0
391 4 1 12.88295867304852 5.390995120128672 24.94293418520899 0 0 0
392 4 1 13.356595131578842 4.448503576877015 26.082134764493894 0 0 0
393 4 1 14.42968726346965 5.085645492374464 27.056859649281506 0 0 0
394 4 1 14.818304789711194 4.35426738085383 28.331828881125627 0 0 0
9027 61 1 4.3883220736677195 18.526079451411604 27.168953866500637 0 0 0
8585 30 1 7.357859785944081 13.119659998964723 29.71668108526902 0 0 0
3331 21 1 15.966851352027236 10.461893066681933 17.72520176397176 0 0 0
1050 52 1 7.2485651394018396 9.773752661199358 17.61411332895102 0 0 0
9403 12 1 1.9697934553576932 22.643249378948212 23.744453068364844 0 0 0
5551 40 1 1.9225083131393337 7.0987213875961865 28.805901575764533 0 0 0
2649 47 1 13.808699756362977 2.052268650692922 14.379223966232498 0 0 0
8055 53 1 12.413944220892217 7.207647917703017 30.60959324598235 0 0 0
2051 13 1 16.91561970074004 22.891910326096383 30.858624606440554 0 0 0
605 4 1 5.39387844763682 6.114755131378073 14.411264012192493 0 0 0
606 4 1 6.009997460738802 5.2589607896755375 15.51132325022131 0 0 0
4543 32 1 15.682785966105042 23.989287781139176 16.648261155956476 0 0 0
608 6 1 8.815290700042604 8.16547471446069 13.33499475152594 0 0 0
609 6 1 9.839273873889463 8.997709446087264 14.190225750765451 0 0 0
610 6 1 10.354208283975781 8.122849954293786 15.384392056118159 0 0 0
611 6 1 11.507726982040344 8.7467985118828 16.277438072042802 0 0 0
612 6 1 11.881259133082823 7.851042086700715 17.448599889674327 0 0 0
613 6 1 12.878428658531396 8.531727871178225 18.410917398996993 0 0 0
614 6 1 13.376202724625319 7.583788227307808 19.460816497981007 0 0 0
615 6 1 14.190933832301424 8.30901787967894 20.535713504012804 0 0 0
616 6 1 14.568448358380687 7.430545216274959 21.70884675039053 0 0 0
617 6 1 15.244316029253191 8.145247000821499 22.81615020774545 0 0 0
1657 56 1 8.275578943543268 16.833625482715206 13.748634365925172 0 0 0
1275 60 1 8.2195909357805 12.830865620822202 12.441019487514913 0 0 0
2203 14 1 5.121026556800188 23.627254562723667 14.221932740718294 0 0 1
3099 17 1 12.627402754463898 6.690949303253954 12.42959789117401 0 0 0
8041 53 1 1.7397397224167985 8.048217083799472 16.33239643538813 0 0 0
1276 60 1 8.196297549147344 12.695352206623948 13.97926557586155 0 0 0
8796 59 1 2.043945566287177 16.159337113543142 18.027911985351963 0 0 0
831 52 1 10.890381057981111 10.088658456327243 22.99254142050853 0 0 0
832 52 1 11.745157974192523 9.174464106154176 23.91003562769906 0 0 0
833 52 1 12.37758062862045 9.907037109162202 25.08386673149467 0 0 0
834 52 1 13.27759592581353 9.000365798186381 25.953823640273413 0 0 0
835 52 1 13.871712743460343 9.86127377943002 27.077882603360713 0 0 0
836 52 1 14.801365347889961 9.025950806594846 27.96997513162833 0 0 0
837 52 1 15.048438913726859 9.492248449052003 29.46735872822649 0 0 0
838 52 1 16.091935601542776 8.755250222122486 30.238461255587787 0 0 0
9409 12 1 5.83897178984966 22.505875888276293 30.2330573106138 0 0 0
1670 11 1 16.8955654435316 18.412667415640694 30.91752831708207 0 0 0
5164 38 1 1.568663252935947 2.557628447368592 30.43063805123308 0 0 0
5998 25 1 4.1214391904141765 10.530860843508917 31.73567953743462 0 0 0
2426 55 1 7.71634558394308 26.324087789247773 12.861199489968653 0 0 0
3325 21 1 11.703244963315683 10.968241289153033 11.474392706370951 0 0 0
1499 11 1 5.223667402724251 14.534765111164203 16.173195660471197 0 0 0
2202 14 1 3.8067817151332557 23.16682175076748 13.677756381103855 0 0 1
7819 46 1 7.529414530602641 4.876992138931613 30.994675808289536 0 0 0
2652 32 1 17.908956427265874 3.1265060526339394 13.488504345206398 0 0 0
2200 14 1 2.270533786699754 23.117234001598614 11.414334393117839 0 0 1
1051 52 1 7.6772773263438125 10.480435060767215 18.953345521116727 0 0 0
1052 52 1 8.808918019293504 9.710537936842789 19.655698382942266 0 0 0
1053 52 1 9.364175561195017 10.343919791997722 20.94017614772458 0 0 0
1054 52 1 10.210651474305683 9.362090077451816 21.74891079792357 0 0 0
1055 60 1 11.183374289333328 12.29929403014035 16.602398702521064 0 0 0
1056 60 1 11.10596883192205 12.4023626192625 18.07807980905574 0 0 0
1057 60 1 12.446375674706138 12.442338629079218 18.735610127755248 0 0 0
1058 60 1 12.554033948926657 11.963066354062352 20.199869462933634 0 0 0
1059 60 1 14.000414047349837 12.065263896400191 20.757426621073016 0 0 0
1060 60 1 14.102328972256903 11.828966632828994 22.229304189600136 0 0 0
1061 60 1 15.508692175534252 12.087337750477804 22.735394614159468 0 0 0
320 59 1 15.786424298721123 2.3451920577584797 23.95655599738634 0 0 0
619 6 1 16.783473298463274 7.839263881038193 24.765052933032422 0 0 0
1045 7 1 2.938435753658409 10.802239007783506 12.660098675449163 0 0 1
1495 10 1 2.243149840733865 14.951979827165909 12.113555962967837 0 0 1
221 3 1 3.494465304483352 1.6194655833163765 12.49201996239927 0 0 0
3548 22 1 17.344674283236802 12.259141644540758 11.668670546588483 0 0 0
395 4 1 15.738326625871581 5.247005941915484 29.155136574497867 0 0 0
5996 25 1 2.631577099205865 10.718048886278703 29.76217642567923 0 0 0
324 59 1 18.71779371890617 2.563963857633689 28.2347309606005 0 0 0
1277 60 1 9.694339742986212 12.495034664359213 14.462674812127169 0 0 0
1278 60 1 9.832823470340593 12.109606183748072 15.936585319352792 0 0 0
1279 11 1 8.241818350476976 14.283651270868907 20.142110246363767 0 0 0
1280 11 1 9.385757427834298 15.042395752599973 20.905986461452024 0 0 0
1281 11 1 9.750232514324193 14.368655536812048 22.21819255294114 0 0 0
1282 11 1 11.07211487679134 14.766959152469582 22.837142314557724 0 0 0
1283 11 1 11.312298590936615 13.77659321378085 24.03744760000103 0 0 0
1284 11 1 12.473717820072467 14.335065986981883 24.924772423624987 0 0 0
1285 11 1 12.671633721856411 13.794542028925234 26.31170658229268 0 0 0
1286 11 1 14.069926582328915 13.993417932189244 26.866149547634276 0 0 0
1287 11 1 14.13159150835579 13.513257936700208 28.299432500631998 0 0 0
9411 12 1 7.404374634752228 22.31339423340482 32.23399475936227 0 0 0
2425 55 1 7.2740535276886265 25.657563612346625 11.54291485130668 0 0 0
2881 17 1 16.79141942557548 6.297361748885409 18.856886325786277 0 0 0
7719 52 1 0.6675533690222378 3.471064334576919 14.63286859637729 1 0 0
4917 41 1 17.616444002531118 25.260747186417703 13.356337731904306 0 0 1
604 4 1 4.243278677082793 5.532787339121815 13.534584406116297 0 0 0
1274 60 1 6.816427068997142 12.840879462831568 11.86999423184355 0 0 0
9407 12 1 4.566551720470565 22.641539965591583 27.976290622985953 0 0 0
15 3 1 16.96526730783055 0.7992282380844749 31.136488909961635 0 0 0
7487 64 1 0.5676598429518667 0.8713772747219601 20.48327982103602 1 0 0
1877 62 1 3.4463300019200767 18.948417758472786 13.841723958802287 0 0 1
1500 11 1 6.371939921281052 15.223221899490602 16.873970890123523 0 0 0
1501 11 1 6.790931839547539 14.461518953908529 18.106204489562096 0 0 0
1502 11 1 7.891627054132139 15.003771482750512 18.905001853701386 0 0 0
1582 56 1 11.49296483355921 16.54315213528371 17.66205231600098 0 0 0
1583 56 1 12.687581543378244 17.037191387734545 18.47254596755161 0 0 0
1584 56 1 12.909587364512584 16.294575718879898 19.8125253848996 0 0 0
1585 56 1 14.271599892325337 16.5234228256342 20.418502995874796 0 0 0
1586 56 1 14.530041990941976 16.208334152758873 21.898646800983954 0 0 0
1587 56 1 15.94692007375706 16.5377025936262 22.474331609712753 0 0 0
4916 41 1 17.01434998590974 26.10619976518804 12.234190458089152 0 0 1
840 52 1 17.40528069544831 8.674328366696267 32.42555920350884 0 0 0
9025 61 1 2.761928249990472 18.479694184617774 25.284857090988773 0 0 0
3712 25 1 17.690074216302687 14.071571859469088 19.80327696308167 0 0 0
222 3 1 4.01364447394046 0.8391248078106249 13.709270664413854 0 0 0
9406 12 1 4.467449272894571 23.236603091113405 26.563682665921633 0 0 0
9639 64 1 6.703655406730504 24.97494535908547 22.166642378898594 0 0 0
9316 3 1 0.3595071991932356 21.10937917742502 15.799631440839347 0 0 0
2651 47 1 15.199719331975752 1.8678697395989174 16.581241278072895 0 0 0
1658 56 1 9.757700758774833 16.916148182237013 14.175255093664436 0 0 0
1659 56 1 9.936783955076141 16.794136139264626 15.705873187514163 0 0 0
1660 56 1 11.381286136524555 17.092026136951834 16.217059751910845 0 0 0
1661 11 1 9.595718751136483 18.626763048716057 22.12174826296674 0 0 0
1662 11 1 11.06118267966188 18.59647458419789 22.645786784739244 0 0 0
1663 11 1 11.277505813177042 18.513949895416285 24.16068242937923 0 0 0
1664 11 1 12.715097183297313 18.359470624974133 24.604982193348896 0 0 0
1665 11 1 12.79352480107876 18.523564392128403 26.12796348521926 0 0 0
1666 11 1 14.207029861052256 18.305566299349618 26.59352514544228 0 0 0
1667 11 1 14.20648411985404 18.530007100419688 28.08665554643673 0 0 0
1668 11 1 15.540570795932327 18.39138900442308 28.7851757248653 0 0 0
1669 11 1 15.526855052570095 18.12425719861619 30.269131209410897 0 0 0
4838 33 1 18.44823053026138 26.03998913481752 14.343082606443245 0 0 0
3706 25 1 13.108211526529074 14.678763466966855 13.770830602633913 0 0 0
7818 46 1 6.451992921332759 4.2190746808194275 30.139195739548757 0 0 0
1880 11 1 6.422778540344954 18.955215988099706 16.496999818918468 0 0 0
3930 26 1 17.443654142651592 16.821201858714467 12.22361071781331 0 0 0
2038 50 1 8.099482052913622 21.886689772988877 12.431197409927842 0 0 0
5553 40 1 3.418645366835793 6.8029319757978035 30.87266447832033 0 0 0
8123 53 1 1.7342291816243278 9.536723029457585 22.979259422396268 1 0 0
2650 47 1 14.2175237890934 1.190509063417272 15.597118450248676 0 0 0
603 4 1 3.718628100861896 6.436002613767996 12.369530454019168 0 0 0
1881 11 1 6.595332604262995 18.956134197847852 18.071698964210455 0 0 0
1882 11 1 8.064461767449046 18.794137611185747 18.533072415436436 0 0 0
1883 11 1 8.27283185122954 18.88228730337188 20.05267357662153 0 0 0
1884 11 1 9.665528527996564 18.50387971346972 20.62622506401449 0 0 0
1964 50 1 11.645116000266002 20.614667103458586 17.590538762738664 0 0 0
1965 50 1 12.625344973513602 21.29495405950055 18.510667133197284 0 0 0
1966 50 1 13.09740171374588 20.401875822903918 19.631431142376336 0 0 0
1967 50 1 14.017777658447812 21.157892860632558 20.60922599229112 0 0 0
1968 50 1 14.80241354184577 20.233804957970133 21.512138528327007 0 0 0
1969 50 1 15.732080990331646 20.95110336303459 22.524219527829274 0 0 0
1970 50 1 16.48307897476419 20.179320404549753 23.589398847134255 0 0 0
1971 50 1 17.063513712429533 21.025508128127885 24.74634860771758 0 0 0
1589 56 1 17.387810417305555 16.572968066555468 24.532214464910062 0 0 0
9030 61 1 6.748156093156501 17.84540835085709 30.306292748469243 0 0 0
8125 53 1 3.2484107330875465 9.3796027954815 24.991517247419246 1 0 0
3711 25 1 17.546825462368698 14.405837426700545 18.34245127910684 0 0 0
4159 29 1 17.40715693690214 19.1621402851176 18.353687666115444 0 0 0
5995 25 1 1.9439844367910792 11.645353205541408 28.76368318990522 0 0 0
3332 21 1 17.153741341949583 9.841272090492966 18.364876211560006 0 0 0
2040 50 1 9.719869445725292 21.750996081882192 14.360022804751228 0 0 0
2041 50 1 10.313061504173499 20.89034781920484 15.493542209594207 0 0 0
2042 50 1 11.313236419512062 21.548784777023936 16.45517687363445 0 0 0
2043 13 1 11.311424301329362 23.10918015171921 22.569962398055296 0 0 0
2044 13 1 11.494391024527493 22.219363851301235 23.80919914051742 0 0 0
2045 13 1 12.462724499030404 22.93170080475084 24.727186967510583 0 0 0
2046 13 1 12.577586848032794 22.24233690430425 26.061385510435155 0 0 0
2047 13 1 13.755044584573337 22.753590063350337 26.870293370909195 0 0 0
2048 13 1 14.00003752756612 22.174396449647805 28.253838567390353 0 0 0
2049 13 1 15.263422835701308 22.833817119872222 28.92870214804113 0 0 0
2050 13 1 15.590636775315131 22.306531106374074 30.279817552307662 0 0 0
3330 21 1 16.001194843024678 10.130205473488376 16.19821104686492 0 0 0
3320 18 1 16.354771007628596 7.872829501557347 11.490145533500257 0 0 1
8801 59 1 6.12073486544756 16.752266841605053 23.020686957705436 0 0 0
9315 3 1 0.3482388300886026 21.416924930561358 14.33939207169561 1 0 0
3335 21 1 18.77974871780498 10.065390138325892 21.940587050735207 0 0 0
830 6 1 7.253660092887626 8.137745835405456 11.480993103089169 0 0 0
7736 52 1 12.977142592666368 2.0414333301501353 32.4259872979805 0 0 0
1047 7 1 4.361522617784426 10.533157999192284 14.91357328357013 0 0 1
618 6 1 15.845168712359234 7.153650221514421 23.803892935145086 0 0 0
2116 13 1 6.796033266576515 23.345862764001772 16.303825781162654 0 0 0
2117 13 1 7.091873615658875 22.62056400823444 17.645518286201558 0 0 0
2118 13 1 8.36038983093344 23.23990818744708 18.304001217479737 0 0 0
2119 13 1 8.667782441622627 22.612289829384363 19.652877934397722 0 0 0
2120 13 1 9.809282141102717 23.273522842975474 20.423168231796147 0 0 0
2121 13 1 10.269925947718923 22.438173278559734 21.632642286612853 0 0 0
2204 55 1 9.177736965616006 26.217263035230335 14.860460953036466 0 0 0
2205 55 1 10.26325937844844 25.33550410861741 15.491568327060847 0 0 0
2206 55 1 10.705272599678665 25.876453495131422 16.857138451964737 0 0 0
2207 55 1 11.711498156574756 24.92856996543023 17.606518022787785 0 0 0
2208 55 1 12.447536640854372 25.550882091602382 18.766778263261557 0 0 0
2209 55 1 13.403069559908161 24.716537472505966 19.63795334856041 0 0 0
2210 55 1 14.119557056671745 25.53512336343442 20.69219898617748 0 0 0
2211 55 1 14.778493703375997 24.67396994950895 21.80619355108307 0 0 0
2212 55 1 15.58711205826883 25.458070407838015 22.769514093201792 0 0 0
2213 55 1 16.15489338458019 24.725378243739122 23.979409207038138 0 0 0
2214 55 1 17.07079594597632 25.549892472920043 24.950227154876437 0 0 0
9633 64 1 2.070585878095665 25.51506502571668 16.03075887048996 0 0 0
2883 17 1 18.107839872720866 5.994699817044493 21.011064831002777 0 0 0
8804 59 1 8.198643937449432 15.595996792373931 26.131291879349874 0 0 0
8579 30 1 2.19049552290612 13.398843218726212 23.938898924376062 0 0 0
7280 50 1 2.9840330366428303 25.17555031474385 31.110825923403187 0 0 0
2201 14 1 3.5301175534648515 23.577905093523718 12.233763297400026 0 0 1
2427 55 1 8.813456803911428 25.592011862869594 13.526435260536706 0 0 0
2428 47 1 15.91007207443676 0.8739884008327391 17.602331428095876 0 0 0
2429 47 1 16.83391947181217 1.603345918404087 18.566468583171996 0 0 0
2430 47 1 17.696488591256664 0.8084557257064308 19.566030560902504 0 0 0
2874 1 1 16.213067161518143 3.21039928238922 11.43971953239104 0 0 1
8128 53 1 5.865243481676525 8.55565487728263 27.73525950655428 0 0 0
1496 11 1 3.246197487250734 15.65032800766784 13.016444045626166 0 0 0
9324 3 1 6.297143891856239 20.47284532546924 24.0820473926386 0 0 0
9026 61 1 3.65011593849525 17.643501074496253 26.17158532618985 0 0 0
1879 11 1 5.00696763182309 18.94910439865992 15.948957866094997 0 0 0
6379 36 1 1.311586424964991 16.241002978267478 29.01934618142046 1 0 0
396 4 1 16.518784794202652 4.369215688854768 30.104765568616223 0 0 0
3626 22 1 16.02494805335933 12.627617160495989 11.129414348675512 0 0 0
8807 59 1 10.704186470952761 15.99025125994354 29.222825357606823 0 0 0
9410 12 1 7.184948447857884 22.87530890306828 30.850275257566405 0 0 0
2876 17 1 13.38260561672531 5.845195591532558 13.514100807248191 0 0 0
2877 17 1 14.261734107521603 6.796653580139741 14.38560139133138 0 0 0
2878 17 1 15.031987457893521 5.97308825028548 15.440794946841113 0 0 0
2879 17 1 15.602942170228577 6.70430867753014 16.633775087296574 0 0 0
2880 17 1 16.156600742051715 5.693680097167143 17.608137633646198 0 0 0
6829 20 1 3.1698613908033333 20.256545155173644 31.962148766806028 0 0 0
7812 46 1 2.1726383011178707 4.3615542093806425 23.764679443751604 0 0 0
321 59 1 16.734872380297883 3.099327509504467 24.903460327949002 0 0 0
2882 17 1 17.357027955909228 5.309588276169775 19.864810940916904 0 0 0
1876 62 1 3.3822553617193907 19.315695400774526 12.395890411305706 0 0 1
7817 46 1 6.263750946365168 4.710844721909912 28.717814859681138 0 0 0
8580 30 1 2.8453639011873784 14.172986717231302 25.065828133829356 0 0 0
3098 17 1 11.835940206824732 5.843954255241341 11.454706224260814 0 0 0
8130 53 1 7.280324903839018 8.467831471847843 29.906164689749485 0 0 0
1289 11 1 15.60512638344205 13.594863424697904 30.395577563807155 0 0 0
2875 32 1 16.927828906647935 3.927964135529503 12.592070372118494 0 0 0
3326 21 1 13.053848126834232 10.628784212607435 12.073081896584403 0 0 0
3327 21 1 13.23959140436079 10.933351071500637 13.565584394807743 0 0 0
3328 21 1 14.551340912237729 10.38207750109167 14.137335635648856 0 0 0
620 6 1 17.570027040220694 6.9784567919935645 25.753964568274142 0 0 0
1972 50 1 17.809106217677343 20.322373069550018 25.866190893543216 0 0 0
9332 3 1 11.910453966904003 20.230335851633658 32.50030499861384 0 0 0
5552 40 1 1.955225853286592 6.835665893695991 30.31446604139364 0 0 0
1288 11 1 15.464506016592685 13.921015151360406 28.908562459354226 0 0 0
2648 15 1 12.78864266047112 1.2580046291967597 13.515094288621928 0 0 1
9323 3 1 6.069921813288979 20.862467868949537 22.64572602614099 0 0 0
9637 64 1 5.237722968016554 24.97151064125269 20.115285168562004 0 0 0
1590 56 1 17.599019834135305 16.055162707174663 25.97289176864869 0 0 0
2646 15 1 11.380833068591896 1.1859252369917643 11.393643077561059 0 0 1
3707 25 1 14.564226163901338 14.660761573745539 14.318472219891685 0 0 0
3708 25 1 14.723331572994176 14.84438913671273 15.842604867806273 0 0 0
3709 25 1 16.152847027254957 14.541302784827089 16.22389982225841 0 0 0
3710 25 1 16.14142806328487 14.342342900286843 17.705320151493343 0 0 0
7720 52 1 1.1397657213325778 2.6199292823578264 15.796342337483328 0 0 0
315 59 1 12.461522833175628 3.525029493831292 18.616673718999063 0 0 0
8808 59 1 11.236430378981897 15.197845412519882 30.387948635989478 0 0 0
839 52 1 16.53000303690144 9.47846024433122 31.518454188710976 0 0 0
398 4 1 17.975949675159427 4.198928356331144 32.231372123364 0 0 0
3321 18 1 17.486266714975617 8.564864115662745 12.235972964278625 0 0 1
3322 18 1 17.763685596553625 8.07150811256315 13.67288329345871 0 0 1
9638 64 1 5.241318224120706 25.009122711791818 21.624933793016694 0 0 0
9405 12 1 3.2149381586458885 22.731825767441446 25.83950006133113 0 0 0
4154 29 1 13.534841306318636 18.522926243818862 13.235509293343563 0 0 0
4155 29 1 14.162247901383074 19.137395329711328 14.461484087727825 0 0 0
4156 29 1 15.096550208655092 18.399221946939125 15.306338909171032 0 0 0
4157 29 1 15.70161676071199 19.160631016026556 16.510115794495462 0 0 0
4545 32 1 17.286257065636704 23.94330319988549 18.684357446779533 0 0 0
9408 12 1 5.776356544664928 23.083004775712645 28.830852109785074 0 0 0
1049 52 1 6.129622148291488 10.509676175519077 16.94085296018527 0 0 0
9329 3 1 10.651140458490623 20.295163661148493 28.69586987873221 0 0 0
7490 64 1 2.2665114308886958 0.346938465294598 23.969149373478338 0 0 0
1592 56 1 18.895126833287012 16.21538816855218 28.133436477323663 0 0 0
7735 52 1 12.84279954589956 2.4287011411221853 30.96250073571719 0 0 0
9318 3 1 1.8980051845213035 20.81150059382297 17.864227040261817 0 0 0
9636 64 1 3.829220053835262 25.22522650063712 19.650755196810174 0 0 0
4160 29 1 18.080463217251875 18.286501623031004 19.36371576472566 0 0 0
3333 21 1 17.379056396785867 10.246340578626894 19.81498571360803 0 0 0
8353 54 1 1.8471068013877097 11.846434357898968 17.79879406042084 0 0 0
322 59 1 17.021616987415907 2.4561183819068693 26.26530291728395 0 0 0
4539 32 1 12.436786384624275 24.173238126034605 12.803145975931619 0 0 0
4540 32 1 13.344509319875316 23.293822107667328 13.564887521277083 0 0 0
4541 32 1 13.953946858578915 23.968788642514653 14.843339501866721 0 0 0
8054 53 1 11.667722986400204 6.4177818738242065 29.586759810214783 0 0 0
9327 3 1 9.30902498530964 20.22337262759027 26.612116097019754 0 0 0
7723 52 1 3.947431692567279 3.2101960227729163 18.405154696993453 0 0 0
317 59 1 14.037004970896474 3.3215033287388764 20.60651360196139 0 0 0
1588 56 1 16.062065400842478 16.139569881759726 23.97613372609281 0 0 0
8584 30 1 6.20812049686373 13.883601148342432 28.98649407864516 0 0 0
9024 61 1 2.236980804419285 17.76986777915314 24.006865533892444 0 0 0
2039 50 1 8.7276551304683 20.941699888238016 13.468245578828263 0 0 0
7491 64 1 3.6151231063385385 0.4900988360554649 24.66263057340531 0 0 0
7494 64 1 4.950733422636019 0.10105867741461495 28.247047263640884 0 0 0
4544 32 1 16.666235678892054 23.158528947474245 17.490341038183697 0 0 0
1963 23 1 7.299422714403198 21.231956692778827 11.35163022233893 0 0 1
9322 3 1 4.696688556616614 20.567275357283215 22.056279786589304 0 0 0
16 3 1 17.661511827332312 26.62188455224437 32.20167123345688 0 -1 0
4534 31 1 16.60259653227936 20.937577716673864 11.242807491346714 0 0 1
5997 25 1 3.6313800845292876 11.491507157645788 30.66038906336711 0 0 0
7820 46 1 7.95424913549339 4.019383917473341 32.18624634853094 0 0 0
8586 30 1 7.700224099859296 13.785328941767142 31.081291515412335 0 0 0
9331 3 1 11.877268209708465 20.60413925203098 30.975168551800586 0 0 0
8129 53 1 6.3593680323616395 9.3346633545889 28.97912468076982 0 0 0
7279 50 1 1.5561529217753804 25.055540302229755 30.63596439849707 0 0 0
8126 53 1 4.320884120516872 8.53919347007522 25.70142056022391 1 0 0
9031 61 1 7.100215006018905 18.664545732417622 31.5354546043482 0 0 0
1498 11 1 4.955126610455526 15.10732757112647 14.847211197228765 0 0 0
9640 64 1 6.790394403504655 24.68802928342643 23.68660553919141 0 0 0
7278 50 1 1.423794384930741 25.40969955030041 29.1547998657956 0 0 0
2653 32 1 18.55440145638317 4.002747282126357 14.551871119506705 0 0 0
621 6 1 18.59165973279357 7.73191859772305 26.62203827142336 0 0 0
4542 32 1 14.973084356074592 23.130650467937908 15.665246233449551 0 0 0
9321 3 1 4.507453891051017 21.074510953070295 20.63090115872523 0 0 0
8797 59 1 2.9735052862825837 16.98249717223219 18.976195179542486 0 0 0
9647 64 1 12.261356173745003 25.07562360285282 30.762854282419145 0 0 0
9646 64 1 10.95445725164186 24.507576241606234 30.0858335165393 0 0 0
9326 3 1 7.884508080260879 20.24610695228195 26.019459518331864 0 0 0
9404 12 1 3.1714622577731593 23.30189494112789 24.44042079367133 0 0 0
2115 13 1 5.499161150727193 22.950139411154804 15.542258040319247 0 0 0
1875 62 1 1.9874890987684712 19.39403622994219 11.748204487936563 0 0 1
9645 64 1 10.497929002795901 25.229285234177322 28.85575021758384 0 0 0
9635 64 1 3.761904903798628 25.23831533032616 18.083033210083077 0 0 0
2647 15 1 12.319043648075034 2.000367315850256 12.260582065755411 0 0 1
4158 29 1 16.710107202383362 18.31223311686097 17.28059631401939 0 0 0
7489 64 1 2.2729336670572446 0.6597601262603348 22.475273091726642 0 0 0
5165 38 1 2.9305430836665964 2.230147899700226 31.012173967748073 0 0 0
1656 56 1 8.114358316648552 17.15601639446516 12.28584085891379 0 0 0
7495 64 1 6.201061222329579 0.7543152081619844 28.89315689612445 0 0 0
7496 64 1 6.396589170057248 0.27141523216091995 30.328304198734426 0 0 0
7497 64 1 7.7904136417572705 0.5678795423652823 30.89361270117312 0 0 0
8354 54 1 2.850437646744127 12.553459314126693 18.71331023357444 0 0 0
1063 60 1 16.89196124552045 12.17421986668134 24.834785488754044 0 0 0
8042 53 1 2.197201337020133 7.239658527329202 17.531552028397805 0 0 0
9328 3 1 9.317016919311198 19.937834367386518 28.09260329052079 0 0 0
8798 59 1 3.6325546195453926 16.02047150170199 20.00142086550909 0 0 0
1591 56 1 18.850850074286388 16.634635865089827 26.64646568434815 0 0 0
7722 52 1 2.6778116217952697 2.6918123018029854 17.821771750015206 0 0 0
1497 11 1 3.6936143308354867 14.635381965086022 14.118492110086523 0 0 0
7724 52 1 3.8607795755534458 3.057301805015011 19.977097255965965 0 0 0
7725 52 1 5.241319391318525 3.131550856192229 20.49418180661867 0 0 0
7726 52 1 5.357121278745715 2.5617653230777746 21.878168593662323 0 0 0
7727 52 1 6.73115199941195 2.653957348508552 22.566152086246937 0 0 0
7728 52 1 6.802257946510142 2.4116047423167837 24.0826971892527 0 0 0
7729 52 1 8.24400231071551 2.3538822111429147 24.66025402735001 0 0 0
7730 52 1 8.391439917963977 2.2200014911406165 26.19335802087324 0 0 0
7731 52 1 9.812781210401601 2.4329491023854626 26.73506080523586 0 0 0
7732 52 1 10.037797120975906 2.1329019759484793 28.190675951289403 0 0 0
7733 52 1 11.435851598769124 2.3543727800652343 28.812680338154806 0 0 0
7734 52 1 11.518810827690436 2.0808714622161997 30.347079829137513 0 0 0
8124 53 1 2.699975606612198 8.670134920880244 23.75400322181965 1 0 0
8351 54 1 0.49641798961506617 11.864440243397214 15.667213131195977 0 0 0
6826 20 1 0.8477365313581818 21.207706827452075 28.827090423261133 1 0 0
9644 64 1 9.44403514694592 24.587123188859046 28.004275331792133 0 0 0
9320 3 1 3.168866466866698 20.836553283541384 19.962534308295652 0 0 0
9029 61 1 5.717903420909576 18.64185506128558 29.41274797862927 0 0 0
8365 54 1 11.297156218862156 10.86927531663638 29.830460525888384 0 0 0
9641 64 1 8.13003313187965 24.883169055267825 24.320035443953152 0 0 0
8577 30 1 0.7773582441293835 13.57234241264514 21.828216115631495 0 0 0
316 59 1 13.1621103752672 2.5812052262410385 19.629705025534612 0 0 0
7813 46 1 3.3826397138198656 4.91138314442264 24.45337363968904 0 0 0
7814 46 1 3.6445564348744854 4.469551273854286 25.86308501099601 0 0 0
7815 46 1 4.91456582842005 4.911448430258856 26.56976158294097 0 0 0
7816 46 1 4.918441916243271 4.491274844302054 28.101998009019685 0 0 0
397 4 1 17.26802733788736 5.0428397209219895 31.205320238379667 0 0 0
7811 46 1 1.83172610455719 4.9157779236343435 22.341509048787213 0 0 0
9643 64 1 9.367663451655915 25.061408749082766 26.54591007359769 0 0 0
1290 11 1 17.056206955365138 13.513197866719489 30.89360628277662 0 0 0
3329 21 1 14.660753842093115 10.655725598088006 15.65390130311863 0 0 0
8127 53 1 4.923666631047643 9.387057921698531 26.80213403324686 1 0 0
8799 59 1 4.631792278669571 16.743495266770662 20.86863585854372 0 0 0
8800 59 1 5.293021872608255 15.934555853061843 22.000960428578374 0 0 0
8043 53 1 3.3332275999682994 7.858751297449507 18.299162458946906 0 0 0
8044 53 1 3.9364945343530553 6.9184839768022 19.398592432543506 0 0 0