LAMMPS data file via write_data, version 29 Oct 2020, timestep = 32000000

10752 atoms
2 atom types
10752 bonds
3 bond types
10752 angles
3 angle types
10752 dihedrals
3 dihedral types

-1.4019591925125496e-01 3.1008115919238300e+01 xlo xhi
-1.2113307625790526e-01 2.6791853076229280e+01 ylo yhi
 5.0386753647473199e+00 2.7796068463456237e+02 zlo zhi

Masses

1 14
2 15

Pair Coeffs # lj/cut/omp

1 0.0914 3.95
2 0.1947 3.75

Bond Coeffs # harmonic/omp

1 449.5 1.53
2 449.5 1.53
3 449.5 1.53

Angle Coeffs # harmonic/omp

1 62.0967 114
2 62.0967 114
3 62.0967 114

Dihedral Coeffs # opls/omp

1 1.411 -0.271 3.145 0
2 1.411 -0.271 3.145 0
3 1.411 -0.271 3.145 0

Atoms # molecular

1            1            1      23.1297      12.0284        6.073
2            1            1      23.7027      11.4835      7.41435
3            1            1      23.6967      12.4541      8.61085
4            1            1      24.3774      12.0454      9.90721
5            1            1      24.1597      13.0812      10.9806
6            1            1       24.392      12.5881      12.3838
7            1            1      24.2715      13.6902      13.4135
8            1            1      24.7135       13.366      14.7984
9            1            1      24.3075      14.2825      15.9476
10            1            1      24.9755      14.1084      17.2794
11            1            1      24.6851      15.2199      18.2989
12            1            1      25.6167      15.0937      19.4445
13            1            1      25.1881      15.9101      20.6939
14            1            1       26.035      15.5672      21.9002
15            1            1      25.7773      16.4812      23.1264
16            1            1      26.4206      16.1028      24.4535
17            1            1      26.1054      17.0638      25.6244
18            1            1      27.0573      17.2024      26.7186
19            1            1      26.3329      17.7049      27.9767
20            1            1       27.209      17.9623      29.1431
21            1            1      26.5771      18.4078      30.4547
22            1            1       27.705      18.5465      31.4533
23            1            1      27.2912      19.3871      32.6939
24            1            1      28.0096      18.8967      33.8776
25            1            1      27.4521      19.7246      35.0458
26            1            1      28.1935      19.5441      36.3589
27            1            1      27.7943      20.5529      37.4266
28            1            1      28.4983      20.4272      38.7375
29            1            1      28.0335      21.3565      39.8009
30            1            1      28.7259      21.2747       41.151
31            1            1      28.0818      21.9473      42.4029
32            1            1      29.0515       21.915      43.5501
33            1            1      28.6931        22.87      44.6452
34            1            1      29.4646      22.6724      45.9815
35            1            1      29.0281      23.4323      47.2054
36            1            1       29.838      23.1777       48.463
37            1            1      29.2244      23.8637      49.6996
38            1            1      30.2567       23.876      50.8518
39            1            1      29.9677      24.8967      51.9193
40            1            1    -0.191746      24.9182      53.1007
41            1            1      30.4457      25.6953      54.3266
42            1            1     0.343763      25.4776      55.4285
43            1            1    -0.127926        26.32      56.6056
44            1            1     0.562042      26.0773      57.8889
45            1            1     0.147656   -0.0294928      59.1434
46            1            1      1.01665      26.6968      60.3326
47            1            1      0.55768     0.736021      61.4727
48            1            1      1.36859     0.498987      62.7296
49            1            1     0.738624      1.26293      63.8667
50            1            1      1.44122      1.02848      65.2282
51            1            1      1.06842      2.04953      66.2657
52            1            1      1.86937      1.80286      67.5914
53            1            1      1.70561      2.85668       68.702
54            1            1      2.39068      2.30289      69.9558
55            1            1       2.1445      3.08092      71.2258
56            1            1      3.00507      2.73797      72.4016
57            1            1      2.72209      3.70042      73.5998
58            1            1        3.551      3.56311      74.8841
59            1            1      3.20836      4.55344      76.0019
60            1            1      3.73126        4.076      77.3449
61            1            1      3.32153      4.90193      78.5545
62            1            1      4.22915      4.59235      79.7606
63            1            1      3.80714      5.26937      81.0647
64            1            1      4.85201      5.28823       82.168
65            1            1      4.53249      6.22641      83.3522
66            1            1      5.37189      6.06021      84.6529
67            1            1      4.77285      6.87349      85.7792
68            1            1       5.5058      6.54919      87.0867
69            1            1      5.08414      7.33504      88.2865
70            1            1      5.87866      7.04769      89.5544
71            1            1      5.58326      8.15305      90.5627
72            1            1      6.17429        7.846      91.9287
73            1            1       5.7765      8.80502      93.0291
74            1            1      6.45421      8.57372       94.402
75            1            1      6.35083      9.58796      95.5343
76            1            1      7.11033       9.2895       96.796
77            1            1      6.72097      10.2146      97.9388
78            1            1      7.42984      9.89463      99.2732
79             1             1       7.05646       10.8194       100.455
80             1             1        7.8651       10.5978       101.788
81             1             1       7.53755       11.6914        102.82
82             1             1       8.35973        11.419       104.117
83             1             1       8.32196       12.4511        105.26
84             1             1       9.12822       11.9921       106.433
85             1             1       9.13305        13.083       107.488
86             1             1       9.15031       12.5206       108.919
87             1             1       9.07095        13.603       110.005
88             1             1       9.87797       13.4834       111.258
89             1             1       9.24095       14.3477       112.314
90             1             1        10.014       14.2588       113.632
91             1             1       9.45263       14.8426       114.968
92             1             1       10.2933       14.5683       116.166
93             1             1       9.97909       15.3556       117.405
94             1             1       10.7848       14.9058         118.6
95             1             1       10.0913       15.4391       119.844
96             1             1       11.0745       15.3813       121.001
97             1             1       10.6206       16.2235        122.18
98             1             1       11.4811       16.0834       123.398
99             1             1       10.8181        16.946       124.544
100             1             1       11.5758       16.8311       125.887
101             1             1       11.2186       17.6733       127.087
102             1             1       11.8845       17.2258       128.391
103             1             1       11.4148       17.9735       129.658
104             1             1       12.2185       17.5748       130.858
105             1             1       11.6624       18.0182       132.203
106             1             1       12.4922       17.5354       133.405
107             1             1       11.6693       17.7264       134.647
108             1             1       12.4023       17.6796       135.998
109             1             1       11.5046       17.8951       137.266
110             1             1        12.221       17.4076       138.532
111             1             1       11.4057       17.5903       139.789
112             1             1       12.0285        16.931       140.995
113             1             1       11.1412       17.1239       142.229
114             1             1       11.7569       16.5257       143.542
115             1             1       11.0141       16.9426       144.767
116             1             1       11.5585       16.3833       146.075
117             1             1       10.4743       16.2124       147.119
118             1             1        11.007       15.8071       148.471
119             1             1       10.0116       15.9725       149.616
120             1             1       10.5535       15.2038       150.818
121             1             1       9.78981       15.4387       152.146
122             1             1       10.2469       14.3795        153.18
123             1             1       9.54466       14.4515       154.588
124             1             1       9.92047       13.3533       155.561
125             1             1       9.06068       13.5219       156.839
126             1             1       9.60963       12.6345       157.968
127             1             1       8.72483        12.775       159.175
128             1             1        9.1734       11.9253       160.416
129             1             1       8.77023        12.352       161.825
130             1             1       8.68023       11.2999       162.949
131             1             1       8.15679       11.6912       164.305
132             1             1       7.89466       10.5044       165.232
133             1             1       7.82727       11.0868       166.618
134             1             1       7.76554       9.99715       167.743
135             1             1       7.36511       10.4424       169.138
136             1             1       7.69864        9.4472        170.23
137             1             1       7.23158       9.91766        171.61
138             1             1       7.31271       8.73647       172.558
139             1             1        6.7598       8.98948        173.96
140             1             1       7.06924       7.92439       175.072
141             1             1       6.49867        8.2426       176.448
142             1             1       6.81435       7.18283       177.519
143             1             1       6.11444       7.62527       178.789
144             1             1       6.28374       6.68389       179.939
145             1             1       5.79325        7.0611       181.312
146             1             1       5.82289       5.94064       182.276
147             1             1       5.17023       6.33846        183.59
148             1             1       5.52951       5.38236       184.716
149             1             1       4.76046        5.5987       185.948
150             1             1       5.36567       4.96161       187.162
151             1             1       4.51314       5.15005       188.428
152             1             1       4.80817       4.25187       189.669
153             1             1       3.97639       4.54878       190.928
154             1             1       4.36459       3.72539        192.14
155             1             1       3.78448       4.17873       193.513
156             1             1        3.6926       3.00922       194.509
157             1             1       2.81489       3.30839       195.692
158             1             1       3.08246       2.28304       196.738
159             1             1       2.71482       2.74613       198.143
160             1             1       2.91793       1.70507         199.3
161             1             1       2.20084       2.11117       200.592
162             1             1       2.50938       1.05605       201.622
163             1             1       1.97682       1.32099       203.073
164             1             1       2.56366      0.416879       204.176
165             1             1       1.78777       0.50843         205.5
166             1             1       2.31607       26.6821       206.741
167             1             1       1.23763       26.6957       207.835
168             1             1       1.86138       25.9081       208.984
169             1             1        1.1263       26.0643       210.355
170             1             1       1.43818       25.1197       211.437
171             1             1      0.483124       25.1228       212.671
172             1             1       1.02566       24.3775       213.872
173             1             1     0.0761245       24.2319       215.087
174             1             1      0.612376       23.5099        216.32
175             1             1       30.7336       23.5581       217.478
176             1             1     0.0328546       22.8962       218.851
177             1             1       30.2089       23.2088       220.037
178             1             1       30.6125       22.4036       221.303
179             1             1       29.6172       22.3848       222.472
180             1             1       30.1488       21.5544       223.663
181             1             1       29.4196       21.8107       224.966
182             1             1       29.7772       20.9052       226.149
183             1             1       28.9199       21.2164       227.358
184             1             1       29.2147       20.2596       228.526
185             1             1       28.2663       20.3774        229.72
186             1             1       28.7388       19.6364       230.991
187             1             1       27.8141       19.9999       232.164
188             1             1       28.0134       19.0235       233.311
189             1             1        27.272       19.3793       234.646
190             1             1       27.5055        18.207         235.6
191             1             1       26.9456       18.6338       236.977
192             1             1       27.3446        17.792       238.151
193             1             1         26.61       18.1349       239.469
194             1             1        27.077       17.4935        240.82
195             1             1         26.18       17.4433       242.111
196             1             1       26.6203       16.4985        243.18
197             1             1       26.0495       16.9552       244.505
198             1             1       26.5174       16.0203         245.6
199             1             1        26.078        16.441       246.964
200             1             1       26.0391       15.2848       247.991
201             1             1        25.507       15.7158       249.301
202             1             1       25.5215       14.5778       250.345
203             1             1       24.9859       14.9327       251.654
204             1             1       24.8801       13.8112       252.696
205             1             1       24.2354        14.176       254.005
206             1             1       24.2452       13.0498       255.084
207             1             1        23.543       13.3947       256.424
208             1             1       23.9645       12.4851       257.635
209             1             1       23.4483       12.8382       259.069
210             1             1        24.058        11.981       260.127
211             1             1       23.4672       12.1059       261.533
212             1             1       23.8079       11.0749       262.608
213             1             1       23.4824       11.6857       264.008
214             1             1       23.5327       10.7782       265.282
215             1             1       22.9525        11.531       266.517
216             1             1         23.07       10.6132       267.716
217             1             1       22.8499       11.3184       269.062
218             1             1       22.9424       10.3697         270.2
219             1             1       22.9299       11.0628       271.563
220             1             1       22.9116       10.1973       272.817
221             1             1       22.7777       11.1564        273.99
222             1             1       23.0515        10.565        275.37
223             1             1       22.9715       11.5729       276.469
224             1             1       23.1926       11.0448       277.853
225             2             1       27.1219       13.1268       276.148
226             2             1       26.6009       13.9006       277.364
227             2             1       27.0312       13.3924       5.73298
228             2             1       26.5301       14.2156       6.99014
229             2             1       27.4078       14.0665       8.19777
230             2             1       27.0784       14.9105       9.41332
231             2             1       28.1199        14.788       10.4938
232             2             1       27.5515       15.4101       11.7546
233             2             1       28.3528       15.3799       13.0374
234             2             1       27.8401       15.9367       14.3584
235             2             1       28.7773       15.8141       15.5654
236             2             1       28.3404       16.6781       16.7058
237             2             1        29.201       16.4757       17.9517
238             2             1       29.0526       17.4766       19.0527
239             2             1       29.6986       17.1489       20.4492
240             2             1        29.237       18.1674       21.4892
241             2             1        30.101       18.1789       22.7458
242             2             1       29.3802       18.8497       23.9619
243             2             1       30.2581       18.5687       25.2074
244             2             1       29.9945       19.4682       26.4145
245             2             1       30.7753       19.2038       27.6827
246             2             1       30.5036       20.2738       28.7252
247             2             1     -0.203783       19.8898       30.1613
248             2             1        30.696       21.0557       31.1734
249             2             1     0.0268412       20.7145       32.5848
250             2             1       30.6278       21.6455       33.6503
251             2             1      0.199789       21.3089       34.9424
252             2             1      0.115025       22.3634       36.0886
253             2             1      0.739164       22.0657        37.434
254             2             1      0.856423       23.2595        38.372
255             2             1       1.01333       22.8176       39.8176
256             2             1        1.1087       23.9043       40.8919
257             2             1       1.47386        23.465        42.304
258             2             1       1.33017       24.5479       43.3464
259             2             1       1.87754       24.2252       44.6767
260             2             1       2.09981       25.3435       45.7079
261             2             1       2.33276       24.8122       47.1217
262             2             1       2.35365       25.7885       48.1923
263             2             1       3.00002       25.2607       49.4707
264             2             1       2.63007       26.1077       50.6989
265             2             1       3.61434       26.0915       51.8694
266             2             1       3.15971     0.0834333       52.9589
267             2             1       3.82285    -0.0933843        54.317
268             2             1       3.22681      0.712334       55.4798
269             2             1       4.17694      0.843064       56.6468
270             2             1       3.78089       1.60939       57.9166
271             2             1       4.34825       1.00976       59.2411
272             2             1       3.87248       1.89406       60.3854
273             2             1       4.92281       1.92549       61.5126
274             2             1        4.4067       2.68443       62.7477
275             2             1       5.33189       2.53967       63.9454
276             2             1       4.83596       3.41243       65.1308
277             2             1       5.83491       3.53189        66.252
278             2             1       5.22587       4.26271       67.4657
279             2             1       6.30903       4.41564       68.5423
280             2             1        5.7501       4.91131       69.8858
281             2             1       6.60623       4.70963       71.1804
282             2             1       6.03891       5.44651       72.4268
283             2             1       6.84301       5.29649       73.7256
284             2             1       6.37372       5.92265       74.9956
285             2             1       7.19272       5.69957       76.2693
286             2             1       6.75952       6.53238       77.4816
287             2             1       7.70777       6.30655       78.6453
288             2             1       7.18967       7.02214       79.8661
289             2             1       8.24385       7.30477       80.9369
290             2             1       7.87446       7.86302       82.2859
291             2             1        8.9415       7.81517       83.3393
292             2             1       8.52001       8.54391       84.5818
293             2             1       9.19698       8.24217       85.8507
294             2             1       8.81543       9.23155       86.9488
295             2             1       9.59053       9.08206       88.2309
296             2             1       8.98024       9.73211       89.4826
297             2             1       9.84875       9.45643       90.7074
298             2             1        9.3654       10.1722        92.036
299             2             1       10.3105       9.87045       93.1926
300             2             1       9.72442       10.5086       94.4148
301             2             1       10.5194        10.558       95.7677
302             2             1       10.7346       11.8788       96.5464
303             2             1       11.1116       11.5672       98.0256
304             2             1       11.1783       12.7154       98.9671
305             2             1       11.5568       12.3296       100.392
306             2             1       11.2664       13.4085       101.434
307             2             1        11.737       13.0815       102.882
308             2             1       11.6716       14.2237       103.917
309             2             1       12.2815       13.7634       105.252
310             2             1       12.3873       14.9054       106.321
311             2             1       13.2278       14.5047       107.577
312             2             1        12.677       15.1317       108.828
313             2             1       13.3926       14.8633       110.195
314             2             1       12.9365       15.7004       111.359
315             2             1        13.904       15.7926       112.522
316             2             1       13.3142       16.5425       113.724
317             2             1       14.0854       16.6343       115.062
318             2             1       13.4569       17.1958        116.29
319             2             1       14.2937       16.9035       117.511
320             2             1       13.6718       17.6992        118.66
321             2             1       14.5318       17.8037       119.914
322             2             1        13.893       18.4114       121.129
323             2             1       14.6921       17.9077       122.326
324             2             1        14.499       18.8729       123.498
325             2             1       15.1216       18.3716       124.773
326             2             1       15.0109       19.3528       125.918
327             2             1       15.6571       18.9079       127.266
328             2             1       15.4275       19.9331       128.476
329             2             1       15.8481       19.3154        129.79
330             2             1       15.4933        20.227       130.954
331             2             1       15.7474       19.5406       132.268
332             2             1       15.5874       20.4787       133.463
333             2             1         15.82        19.795       134.799
334             2             1       15.6237       20.6334       136.024
335             2             1       15.7088       19.7214       137.229
336             2             1       15.6811       20.4349       138.525
337             2             1       15.9439       19.5136       139.681
338             2             1       15.5327        20.118       141.006
339             2             1       15.4138       19.1103       142.209
340             2             1       14.8283       19.6974       143.482
341             2             1       15.2983       18.8494       144.701
342             2             1       14.5645        19.095       145.975
343             2             1       15.1086       18.4414       147.208
344             2             1       14.2047       18.5446       148.382
345             2             1       14.5791       17.6506       149.499
346             2             1       13.7258       17.6185       150.764
347             2             1       14.4544       16.8989       151.834
348             2             1       13.4893        16.872       153.025
349             2             1       14.0751       16.1221       154.224
350             2             1       13.2511       16.2969       155.453
351             2             1        13.521       15.3638       156.628
352             2             1       12.5412       15.3964       157.809
353             2             1       12.9039       14.4287       158.962
354             2             1       12.1009       14.6667       160.234
355             2             1        12.778       13.9931        161.45
356             2             1       11.8528       13.8804       162.707
357             2             1       12.4464       13.4713       164.047
358             2             1       11.5189       13.2185       165.203
359             2             1       12.1337       12.4574       166.403
360             2             1       11.1803       12.7066        167.63
361             2             1       11.5399        11.955       168.942
362             2             1       10.7525        12.279        170.24
363             2             1        11.092       11.2339       171.331
364             2             1       10.4508       11.4193       172.775
365             2             1       10.7927       10.4063       173.844
366             2             1       10.1314       10.8178       175.176
367             2             1       10.4572       9.87921        176.36
368             2             1       9.75074       10.2235       177.679
369             2             1       10.2092       9.32117       178.835
370             2             1       9.62156       9.76175        180.16
371             2             1       10.0071       8.76125       181.219
372             2             1       9.30507       9.16064       182.541
373             2             1       9.49424       8.15621       183.689
374             2             1       8.59899       8.48165       184.831
375             2             1       9.05701       7.61563       186.042
376             2             1       8.13647       7.62062        187.27
377             2             1       8.74441         6.856       188.443
378             2             1       7.62449        7.0599       189.508
379             2             1       8.16015       6.57608       190.891
380             2             1       7.25183       6.58456       192.179
381             2             1       7.94808       5.80231        193.34
382             2             1       7.26068       5.77689       194.707
383             2             1       7.64142       4.73315       195.777
384             2             1       6.62794        4.8373       196.931
385             2             1       6.94046       3.95978       198.155
386             2             1       6.13943       4.27539       199.423
387             2             1       6.72501       3.52836       200.597
388             2             1       5.76517       3.61234       201.738
389             2             1       6.39501       2.86825       202.925
390             2             1       5.62355       3.00258       204.248
391             2             1       6.11329       2.21384       205.448
392             2             1       5.20524       2.25638       206.697
393             2             1       5.63185       1.39231        207.84
394             2             1       4.76248       1.60224       209.114
395             2             1       5.12608       0.64621       210.294
396             2             1       4.56773       1.00721       211.697
397             2             1       4.75519    -0.0648544        212.78
398             2             1       4.30829      0.388989       214.093
399             2             1       4.28438       26.2185       215.189
400             2             1       3.50989       26.5001       216.479
401             2             1       3.72705       25.4028       217.503
402             2             1       3.12404       25.7116       218.849