LAMMPS data file via write_data, version 23 Jun 2022, timestep = 11112117

8487 atoms
2 atom types
8471 bonds
3 bond types
8455 angles
3 angle types
8439 dihedrals
3 dihedral types

0 36.89775039 xlo xhi
0 26.67072 ylo yhi
26.170814408396396 210.5807899915493 zlo zhi
0 5.80193936428734 0 xy xz yz

Masses

1 14
2 15

Pair Coeffs # lj/cut/omp

1 0.0914 3.95
2 0.1947 3.75

Bond Coeffs # harmonic/omp

1 449.5 1.53
2 449.5 1.53
3 449.5 1.53

Angle Coeffs # harmonic/omp

1 62.0967 114
2 62.0967 114
3 62.0967 114

Dihedral Coeffs # opls/omp

1 1.411 -0.271 3.145 0
2 1.411 -0.271 3.145 0
3 1.411 -0.271 3.145 0

Atoms # molecular

1 55 1 9.4293037356327 0.7465166137618684 33.07460357475202 0 0 0
2 55 1 10.588439974514909 1.3810329217393342 33.90402378433751 0 0 0
3 55 1 10.847226924996216 0.6790765248365004 35.23582561024196 0 0 0
4 55 1 11.778708637162314 1.500233003763016 36.13280908030276 0 0 0
5 55 1 12.279388518122449 0.6401446980035038 37.31559922989614 0 0 0
6 55 1 13.224721130846966 1.453995134125218 38.21739977342335 0 0 0
7 55 1 13.767621170664619 0.7576913849164262 39.45287899968582 0 0 0
8 55 1 14.736937584715287 1.5882922376720907 40.25568697358893 0 0 0
446 3 1 9.23267540047482 3.1210497175907017 26.637473894092416 0 0 0
3612 56 1 16.83875084060161 18.561488137837223 30.696851678750093 0 0 0
7658 58 1 3.2706803342558026 16.518461481513036 31.219784798479168 0 0 0
6993 54 1 5.833613857285881 10.423079266408545 40.57099951084166 0 0 0
7205 56 1 7.399848219406936 12.73918074039179 36.05239585984699 1 0 0
7967 60 1 8.207427718300842 21.424270088412396 38.026326022698896 0 0 0
7202 19 1 4.858951105044635 11.856799245511423 33.23204778400144 1 0 1
2252 15 1 12.820809331863726 25.7200207404446 32.0103668713213 0 0 1
1642 10 1 8.755602733505416 16.385115131800603 27.126484074937032 0 0 1
2925 22 1 13.308769224957762 9.663824032408385 26.641444562570342 0 0 1
4281 32 1 18.31736254274138 25.410071116662927 26.498071471973013 0 0 0
221 55 1 5.7180613700994565 1.0619297462142148 29.37157849800248 0 0 0
222 55 1 7.138186480235254 1.3236947588589587 29.86264510749815 0 0 0
223 55 1 7.541398827698484 0.907209565037423 31.225168152656416 0 0 0
224 55 1 8.970666745618447 1.3506461859903627 31.67045436388609 0 0 0
225 3 1 11.315921226376213 3.9069504113339963 29.76964464227512 0 0 0
226 3 1 12.476426847825252 3.262035948158686 30.53081350541818 0 0 0
227 3 1 12.779010612405768 3.8567821443704733 31.947051380782096 0 0 0
228 3 1 14.176282239263887 3.382019865459988 32.47388076107514 0 0 0
229 3 1 14.24510535891905 3.5593038284555205 33.9970815306401 0 0 0
230 3 1 15.570240319190933 3.052772850652992 34.50384256758119 0 0 0
231 3 1 15.60286123181787 3.0360132744230297 36.03106912446447 0 0 0
1430 9 1 18.533954840211347 16.455294904165367 38.91213011189896 0 0 0
6940 49 1 4.692978669461385 7.15006388023882 33.70921938884855 0 0 0
2332 16 1 15.958483574278937 1.220312040901176 29.631788961422476 0 0 1
2929 22 1 16.555512495652668 9.568609410433046 30.651340952442098 0 0 1
3604 29 1 17.676711236493066 16.16729514244132 26.594004212826746 0 0 1
8436 64 1 7.132736033654996 26.020197490996118 36.27014383958168 0 0 0
6619 12 1 6.407259645831701 2.9462680706063846 35.01694870126167 0 0 0
1948 64 1 17.920632201492943 23.86153087644681 44.04856530645757 0 0 0
219 55 1 4.464872338150156 0.6545975309958658 27.21484907078432 0 0 0
447 3 1 9.79469547875518 3.840870132077152 27.845416187228928 0 0 0
448 3 1 10.996480546191977 3.217276064868769 28.517437836289872 0 0 0
449 4 1 12.331401685181508 5.036195788809462 36.99565482648826 0 0 0
450 4 1 13.108821668579225 5.959629600703786 37.95400332416155 0 0 0
451 4 1 13.755379786157839 5.1103471561922555 39.01326504482127 0 0 0
452 4 1 14.319532144301977 5.95618719845504 40.15568774276939 0 0 0
453 4 1 14.916581465200041 5.119312462211812 41.3368952980107 0 0 0
454 4 1 15.857990275236215 5.906289560629912 42.24406845617594 0 0 0
2930 22 1 16.986327435264553 10.21199324475612 31.927441988341613 0 0 1
4628 11 1 2.809248675843746 3.062873588713513 41.67850003539216 1 0 0
2031 14 1 7.600733314779664 22.948508522480925 31.05894014412659 0 0 1
3610 56 1 15.254817037479652 18.679144193701205 28.69305596543377 0 0 0
5862 48 1 4.292022151030098 20.865756624435758 43.653424538039175 1 0 0
1682 11 1 6.920669137950453 19.398270864923955 30.078110840020386 0 0 0
7665 58 1 8.812199578879362 17.247492738851946 38.250764191883256 0 0 0
2034 14 1 9.700639475715104 23.895661764236003 34.01954948127243 0 0 1
2294 31 1 17.463761010613517 0.9871624373988116 31.713663253422904 0 0 0
8435 64 1 6.1175842402703156 25.33039994043224 35.316440702370244 0 0 0
7433 26 1 1.1272765245831797 14.65989905207221 34.468674896497106 1 0 0
1417 9 1 4.50288201474843 14.291220610477334 27.719377552716452 0 0 0
668 4 1 8.116072074423112 5.859773411563803 32.138406574976344 0 0 0
669 4 1 9.08850695906965 5.053847281879937 32.85156958798592 0 0 0
670 4 1 9.807445076111449 5.826888695687946 33.94465485928373 0 0 0
671 4 1 10.707844727642012 5.029042980938434 34.90691992087289 0 0 0
672 4 1 11.258391895400194 5.7051770219903 36.100466136049945 0 0 0
6161 62 1 2.161138678892375 25.54090260566938 42.1170369254362 1 0 0
6937 49 1 2.4020588590000496 8.075482989285003 30.53017414308755 1 0 0
1193 16 1 9.484282038775893 12.79229672488176 28.200002454867445 0 0 1
8186 62 1 8.076033667312345 23.24056331278703 43.38193910525722 0 0 0
1681 11 1 5.817858092418662 18.6436564444966 29.219978962474368 0 0 0
720 5 1 9.383750637997302 8.129643012215501 28.015976795894797 0 0 0
721 5 1 10.205047330493615 7.3708577831875335 29.008541822928414 0 0 0
722 5 1 11.103708089975152 8.269057179097132 29.912339039505078 0 0 0
6991 54 1 4.246851798571318 10.116880071725332 38.527054283777304 0 0 0
6836 51 1 0.825683723826047 5.847502609070334 34.80037485620018 0 0 0
1730 13 1 17.790832965124984 21.651530768918054 38.08564264665578 0 0 0
7659 58 1 4.389669685365569 17.219832669626676 32.05344967735942 0 0 0
7874 58 1 5.332212051578353 18.54123015853615 39.31237760557296 1 0 0
729 5 1 16.59652616081066 7.059600891880755 36.944793032709 0 0 0
4055 31 1 13.652707834708986 23.33353916869224 26.457940624460267 0 0 0
760 60 1 15.558293659644733 9.409439225638033 41.17894139598587 0 0 0
1944 13 1 9.780650195783107 21.6678619823218 28.395914091016923 0 0 0
1192 16 1 8.61730696618927 11.97558625861217 27.248221422492065 0 0 1
752 60 1 9.000428472526096 9.249821266806835 33.44263030187286 0 0 0
753 60 1 9.844229835002677 10.071461627132825 34.42177771475808 0 0 0
754 60 1 10.582013036340873 9.254643512959895 35.454294276886436 0 0 0
755 60 1 11.569042149887762 10.164641494002831 36.21476113883174 0 0 0
756 60 1 12.198737583449184 9.398914779892877 37.42469074358781 0 0 0
757 60 1 12.883269069837459 10.241238263287174 38.48036055569009 0 0 0
758 60 1 13.667555287720973 9.384621875911028 39.47757544034152 0 0 0
5859 48 1 1.522696249692208 21.679758182739175 41.027860550112415 1 0 0
7204 56 1 6.479429775463695 11.846356985206613 35.26897217924668 1 0 0
8444 64 1 13.566280290331253 25.810940040886166 44.0964143827717 0 0 0
978 7 1 16.92997225961317 11.36803758025407 37.032392835771475 0 0 0
1419 9 1 6.157261273412861 13.972459772209474 29.463371346989945 0 0 0
980 7 1 18.54696041710674 11.323807116384593 39.054511726993915 0 0 0
6159 62 1 0.8348304882121661 25.631243795183067 40.02694522618548 1 0 0
1194 16 1 10.28641396557866 11.88493728800476 29.071982756715364 0 0 1
2931 22 1 18.158069248187534 9.47726286153317 32.529896936848004 0 0 1
233 3 1 17.08208028506383 3.0449987204167086 38.15950867463559 0 0 0
2926 22 1 13.763259160236323 10.289680128576656 27.932482136224515 0 0 1
971 60 1 5.4318721254663025 10.430941112056987 28.239877972868197 0 0 0
972 60 1 6.016577920755912 9.494718945555013 29.337019970178474 0 0 0
973 60 1 6.825649979949066 10.234492447781811 30.378764248891827 0 0 0
974 60 1 7.632496769631896 9.357602257807772 31.32038430373546 0 0 0
975 60 1 8.33508842845228 10.18525994718222 32.45727224448497 0 0 0
976 7 1 15.025052054063675 11.551229173674905 35.363448990575684 0 0 0
977 7 1 16.221051980021578 12.219184954255745 36.03918668632896 0 0 0
11 55 1 16.95561147130041 0.5408618170238769 43.19651618879179 0 0 0
664 52 1 4.657728575406029 5.940518317338581 28.148978448256543 0 0 1
1942 13 1 8.243383413468885 21.486424620404225 26.353462516322786 0 0 0
7875 58 1 5.948094240411409 19.448135169676355 40.42165415326997 1 0 0
7969 60 1 9.727212845258371 21.667857724655086 40.08575689048324 0 0 0
5382 32 1 2.2906077903897035 11.732361643666867 41.92677629366885 1 0 0
1727 13 1 15.607016954770355 20.74616011204699 35.04833503087369 0 0 0
666 4 1 6.272097884732673 6.0054160645341925 30.28560184339464 0 0 0
10 55 1 16.332536763765486 1.5535636018002048 42.24638390746109 0 0 0
1195 7 1 11.243876599717874 12.612012266131408 30.019243132541394 0 0 0
8179 62 1 2.4336217073094293 24.037001853676834 36.301339738674315 1 0 0
7208 56 1 9.719849509494887 11.777153959901511 39.10608137221733 0 0 0
1196 7 1 11.88600880650457 11.727722397330435 31.12917825250592 0 0 0
1197 7 1 12.928691380110457 12.35565460908985 32.05787900318761 0 0 0
1198 7 1 13.475136029181218 11.526938251616937 33.305458629931174 0 0 0
1199 7 1 14.506415263861143 12.27228968859815 34.1555432694515 0 0 0
1200 9 1 10.246417925251794 14.843531610565112 34.234326980538654 0 0 0
1201 9 1 11.10158488395518 13.943586154509184 35.04371645548097 0 0 0
1202 9 1 11.938049298034715 14.738520246054197 35.984836869382846 0 0 0
1203 9 1 12.741946874894785 13.870499175814903 36.93791747830387 0 0 0
1204 9 1 13.477740911424611 14.721897598683821 37.95999226698512 0 0 0
1205 9 1 14.380200215929209 13.903494438276566 38.95302338927828 0 0 0
1206 9 1 15.13390418188582 14.914432689169724 39.90388865838991 0 0 0
1207 9 1 15.834865480750619 14.165850976378229 41.034709930266 0 0 0
1208 9 1 16.307934339822346 14.989793856198673 42.235846124021805 0 0 0
2710 21 1 17.890800047488234 7.347717196822653 26.358109186793225 0 0 1
7878 58 1 7.978343845850762 18.605236458646665 43.474437301431905 0 0 0
7438 26 1 4.833508904070627 14.217531124974284 39.519894516773114 0 0 0
7668 58 1 11.426581554166939 16.32894862084644 41.01389631281873 0 0 0
1210 9 1 17.7032838711605 15.104942788762928 44.36579531761015 0 0 0
3159 24 1 15.796715113349803 14.567241217915662 29.882534185592476 0 0 0
7197 19 1 0.5260980849245596 12.818426458245488 28.530189008504674 1 0 1
663 52 1 4.284761950799969 5.073544033862707 26.961192617976547 0 0 1
730 5 1 17.690178996509655 7.7256997791970985 37.76501880024504 0 0 0
2410 4 1 18.098906411342472 4.913168688650545 32.51358575919943 0 0 0
1420 9 1 7.096552861534154 14.80286386605364 30.257863967380196 0 0 0
1421 9 1 7.749077167622774 13.93179925366419 31.33103869720119 0 0 0
1422 9 1 8.590815983496066 14.787921728129714 32.20962344286843 0 0 0
1423 9 1 9.473708659030901 14.032853326526562 33.187196885888476 0 0 0
1424 9 1 13.96410670928774 15.993018478698282 32.812135195689876 0 0 0
1425 9 1 14.719216601709586 16.80331971522656 33.85113490328085 0 0 0
1426 9 1 15.441166487553433 16.006665005476286 34.921056642122096 0 0 0
1427 9 1 16.16806696816318 16.920702610118695 35.925658171349944 0 0 0
1428 9 1 16.74609210760573 16.205962026200986 37.09359244923401 0 0 0
2628 4 1 13.41014630323624 5.363066491118033 26.57981388372436 0 0 0
2369 17 1 18.000378205540073 3.0858648343008457 26.46499302594501 0 0 0
7670 58 1 12.82529678027062 16.344170664757755 43.091912209295614 0 0 0
6988 54 1 2.123292448247079 9.386163554112537 35.3621985007181 0 0 0
6624 12 1 9.832318887634575 3.5534092913797095 40.30900572229177 0 0 0
7964 60 1 6.0910800509673315 21.121353068043064 34.87077707053183 0 0 0
7437 26 1 4.074284544458214 15.068930501128683 38.50665277081894 0 0 0
8434 64 1 5.56930834115523 26.144694314762923 34.08155346985656 0 0 0
2250 15 1 11.454026459185553 25.79232495099534 30.04364169457114 0 0 1
6614 12 1 2.3174080703034514 3.934336029132611 30.100050258826105 0 0 0
1645 9 1 11.547031253464894 17.16489153172219 29.801896104179537 0 0 0
1646 9 1 12.324325699211107 16.25172729938733 30.84156278407253 0 0 0
1647 9 1 13.307456047209643 16.932959339548425 31.762784064342263 0 0 0
1648 11 1 9.481535846488486 18.41131859030613 32.89998660721605 0 0 0
1649 11 1 10.093468629634117 19.250587361875287 33.99202477350043 0 0 0
1650 11 1 10.987803829079036 18.495480653988288 34.98727268783796 0 0 0
1651 11 1 11.822805894438385 19.372746601675466 35.935383885481954 0 0 0
1652 11 1 12.738265185389725 18.58601465741393 36.84533128039999 0 0 0
1653 11 1 13.327843506294569 19.434479753420284 38.007731923039465 0 0 0
1654 11 1 13.95102852516298 18.581266480888285 39.052686303940824 0 0 0
1655 11 1 14.613670101743521 19.42900144453341 40.15115359124873 0 0 0
1656 11 1 15.508766029052067 18.541009173291606 41.07519047342763 0 0 0
2249 15 1 10.276498517536712 25.191803347204235 29.307654773039832 0 0 1
6622 12 1 8.419494583801036 3.545449190841191 38.23425743828295 0 0 0
759 60 1 14.378509466119588 10.165117333418953 40.56738038389271 0 0 0
2253 15 1 13.47776661878448 24.90973089874649 33.14815595129569 0 0 1
5566 42 1 4.09588335875399 16.580208578614858 43.63452935938425 1 0 0
726 5 1 14.434393745452926 8.26143449230977 33.81658980352866 0 0 0
6938 49 1 3.0548466202975164 7.239836239821406 31.659199996857517 1 0 0
8433 64 1 4.421812804796675 25.465367491028452 33.30576481341633 0 0 0
6393 48 1 5.7877295471410335 1.5648194136688163 40.74333085293455 0 0 0
5563 42 1 1.7227057581853684 17.175418460934516 40.682441730854976 1 0 0
7873 58 1 4.4179021030556935 19.23280640510775 38.30497256632336 1 0 0
2937 42 1 17.077380949730877 11.85018553246664 26.438815791679513 0 0 0
1683 11 1 7.572400166463571 18.61312113355821 31.212862902372265 0 0 0
1684 11 1 8.673512869868496 19.338247286556463 31.99865753389636 0 0 0
1722 13 1 11.308929660219977 21.640482175492025 30.456874699654477 0 0 0
1723 13 1 12.273526506415552 20.721023015346194 31.272800584294224 0 0 0
1724 13 1 13.407666349069178 21.46633896955246 31.95075934999602 0 0 0
1725 13 1 14.371715953590142 20.56464178893074 32.80738896263198 0 0 0
1726 13 1 14.98134440189634 21.456785199380302 33.883196790368416 0 0 0
4057 31 1 15.470077360882886 23.572375905338767 28.29187883671637 0 0 0
6987 54 1 1.440144963187426 10.276717860384617 34.33727884960393 0 0 0
8431 64 1 3.3159036427979958 25.462607063673474 31.125415133248534 0 0 0
8178 62 1 1.4858861689528642 23.19418273233513 35.486688394570024 1 0 0
3611 56 1 16.50028735331826 19.259882548864326 29.320934951857023 0 0 0
3833 28 1 18.119578176930144 20.637916462454303 26.28543996089309 0 0 0
7210 56 1 11.00689845010994 11.796193784966224 41.40985343998052 0 0 0
6837 51 1 1.8683229681546303 4.991673630612473 35.541667509405755 0 0 0
3613 56 1 17.821350800575527 19.316939854571487 31.57369807763921 0 0 0
6949 49 1 11.933227975644035 8.078156855557319 42.478026095890286 0 0 0
970 60 1 4.316086785676743 9.66060703357985 27.445243619147444 0 0 0
7435 26 1 2.5714519239238323 14.749191457366944 36.42671142796914 0 0 0
1945 13 1 10.664043984327108 20.875594947284675 29.285618924122208 0 0 0
1946 64 1 16.089316897939813 23.66807341458177 42.18895150860274 0 0 0
1947 64 1 17.290612773372075 22.98425935289495 42.88892101412904 0 0 0
1943 13 1 9.4815359329114 20.926594827732618 27.156045221332068 0 0 0
8443 64 1 12.29775462105253 25.135153525998046 43.41522864584101 0 0 0
667 4 1 7.207243703393207 5.1110611820073375 31.135114056659027 0 0 0
2028 14 1 5.087986490839407 23.38758559861949 28.078429140575132 1 0 1
5082 38 1 1.3990810631278567 8.280933992426732 40.80469653312549 0 0 0
7869 58 1 0.9131320459864529 19.49014215353669 34.59789091171358 1 0 0
719 5 1 8.552177835802508 7.301900257906521 27.050127648334552 0 0 0
8427 64 1 0.520610629907729 25.345818591337373 26.892528449259277 1 0 0
6627 12 1 12.403728016050286 2.9993528784035064 43.16854944038563 0 0 0
4060 31 1 17.345393379360388 23.411446430370717 31.797571972073854 0 0 0
6626 12 1 11.290142290293092 3.781538386442582 42.37195155242452 0 0 0
5564 42 1 2.4605981551124305 16.45216896304403 41.80724723786791 1 0 0
7962 60 1 4.586814072137725 21.10664995273249 32.782214040330274 0 0 0
725 5 1 13.44709218752713 7.4826311801844465 32.94060443430169 0 0 0
4630 11 1 4.150220070048682 3.109492191479464 43.90237320311796 0 0 0
1977 64 1 11.256110198488253 23.826463543081054 36.09019186585428 0 0 0
1978 64 1 12.332903505791357 23.15223839486641 36.86306765583967 0 0 0
1979 64 1 12.69472416234858 23.796380235263825 38.244451381106494 0 0 0
1980 64 1 13.948696818632609 23.07754454747315 38.837721860924184 0 0 0
1981 64 1 14.28609168380309 23.515823103429323 40.331241295994865 0 0 0
1982 64 1 15.64905106707695 23.064078851919685 40.826363128446786 0 0 0
6163 62 1 3.8368365763279466 25.374144890946777 44.0196783506062 1 0 0
2928 22 1 15.425054449267149 10.22259528915805 29.92360468358915 0 0 1
6842 51 1 5.476710614581175 6.0691600231452965 40.492869629210475 0 0 0
8177 62 1 0.9452047714031419 24.008359615080984 34.31674664912134 1 0 0
7656 58 1 1.4310398192463663 16.616800509072394 29.557444559928204 0 0 0
7439 26 1 5.805805715052391 14.99299790677611 40.3590960501795 0 0 0
7870 58 1 1.7661660068361884 18.722758925215597 35.502850556451946 1 0 0
2029 14 1 6.068796829654627 22.569686799880913 28.993718177172003 1 0 1
6160 62 1 1.8843420984543973 26.344659335765183 40.852314704248194 1 0 0
2254 3 1 14.567406905824091 25.71714049638225 33.9394657255814 0 0 0
5081 38 1 0.5499328972287101 7.464048225743451 39.81060016623637 0 0 0
7961 60 1 3.394378422516486 21.67750783573331 32.14817802272603 0 0 0
1679 11 1 4.516800504632069 18.41844342297775 26.891200700240013 0 0 0
1644 9 1 10.3633737027516 16.495897085777926 29.07467441840808 0 0 0
2255 3 1 14.841751966999015 25.170726042437078 35.30498115709285 0 0 0
2256 3 1 15.676502921510213 26.072338630754945 36.228724698659526 0 0 0
2257 3 1 16.358650626565016 25.3167151704885 37.31875250634654 0 0 0
2409 4 1 17.202834643325676 5.716827988169807 31.62190320339262 0 0 0
2408 4 1 16.605267821447125 4.9924902212812645 30.442267824409463 0 0 0
8432 64 1 4.158022126808169 26.338986734303464 32.04952404504076 0 0 0
6939 49 1 4.018002684129173 8.030992793941582 32.601919908571816 0 0 0
6623 12 1 9.617888769582846 2.8950430353934378 38.89455636464731 0 0 0
6839 51 1 3.467628591968568 5.185440623225484 37.27638298428741 0 0 0
3381 24 1 14.024974670799628 15.039603333840667 28.089689828650744 0 0 0
7963 60 1 4.753373628293775 21.346410728784512 34.28193289531326 0 0 0
2293 31 1 16.63231448140475 0.23700417692173495 30.658356227324294 0 0 0
6835 51 1 0.2484689226006556 5.14657508404489 33.59145963971253 0 0 0
2258 3 1 17.402003559636963 26.048999974286865 38.1645541108267 0 0 0
6845 51 1 8.048923728453556 5.475490879892951 43.41440994590366 0 0 0
6394 48 1 6.96649210001553 0.8959145077664801 41.47762334140412 0 0 0
1209 9 1 17.052146837895833 14.282436843649354 43.30594594022884 0 0 0
2295 31 1 18.36849132318497 0.22685915930121145 32.72856183255678 0 0 0
2407 4 1 15.466199709456884 5.836306709680664 29.871283565504232 0 0 0
220 55 1 5.365221020051667 1.596380543695992 27.955216614003188 0 0 0
6986 54 1 0.5492815359495624 9.460854486524907 33.40168770240208 1 0 0
2330 16 1 14.371777922296001 1.2456562686724697 27.585884177799013 0 0 1
235 3 1 18.401156179460376 3.365822274107648 40.23633673962886 0 0 0
665 52 1 5.378838176848701 5.227658910842916 29.255909883751237 0 0 1
7660 58 1 4.852177812711028 16.483958635702965 33.32155352853116 0 0 0
6936 49 1 1.3000295226836778 7.284375978599488 29.789666050307197 1 0 0
6612 12 1 0.5490279787344106 3.922155258473359 28.2691473533036 0 0 0
2630 4 1 15.131421862088574 5.419930616868931 28.482068867932473 0 0 0
455 4 1 16.59664544834035 5.202893958028759 43.37699013553672 0 0 0
727 5 1 14.926775438054973 7.431224153286343 35.00209545336004 0 0 0
5858 48 1 1.0000330824879653 21.073891811597147 39.66923949315347 1 0 0
979 7 1 17.856112309312827 12.1687831165081 37.94339431689349 0 0 0
6948 49 1 11.023234957263039 7.233319056799821 41.636443341057976 0 0 0
5562 42 1 0.6932098030857383 16.33717012118502 39.982261681310206 1 0 0
3609 56 1 14.628127928034 19.49271718174178 27.584616737224206 0 0 0
7973 60 1 12.66134631603087 21.475186538080145 44.067846507800766 0 0 0
6840 51 1 3.990766342343488 5.864630783754754 38.494366970682805 0 0 0
1976 64 1 10.770538415222298 23.142104636626907 34.80193502223072 0 0 0
7663 58 1 6.980484446046851 17.19671504159097 36.36156080051436 0 0 0
6618 12 1 5.3962547415581295 3.6744867944194626 34.278382061847125 0 0 0
1729 13 1 17.137303460798076 20.78126143371994 36.97187867769887 0 0 0
6950 49 1 12.725745217969203 7.352457177135643 43.555157486160965 0 0 0
6992 54 1 5.419480053968946 9.621050164014273 39.29608931465044 0 0 0
8187 62 1 8.633901849473341 24.140543499214974 44.45130030480534 0 0 0
7968 60 1 9.633278266304602 21.190650965838415 38.592610561923024 0 0 0
8183 62 1 5.597999270137423 24.034826714229563 40.35489270139721 0 0 0
3608 56 1 13.413859157168197 18.85462972369764 26.920801247063533 0 0 0
3160 24 1 16.49545873450619 13.522083634660282 30.723483423575395 0 0 0
3161 24 1 17.431785553325334 14.226436498966567 31.731899104026045 0 0 0
2247 15 1 8.642548717860286 25.42184339111128 27.365884776637166 0 0 1
731 5 1 18.28258926646285 7.0054130275377675 38.88710277263719 0 0 0
5381 32 1 1.6816425009969667 12.385521996385704 40.72393463562845 1 0 0
762 60 1 17.32645919002958 9.510518954981393 43.060108132579884 0 0 0
728 5 1 16.05555869094321 8.017251955449947 35.81419481272491 0 0 0
7958 60 1 1.8299742184378414 20.737418730477817 28.68281620697403 0 0 0
7868 58 1 0.34220359806037676 18.544130995898332 33.51548944457977 1 0 0
5861 48 1 3.223221752588953 21.617767302593787 42.801313440311844 1 0 0
7207 56 1 9.086014432156396 12.69521463597734 38.07952671654611 0 0 0
8442 64 1 11.66822704702636 25.946714639611503 42.28333300505993 0 0 0
6989 54 1 2.831428321533863 10.18130082600997 36.438391862980566 0 0 0
761 60 1 16.27470948547053 10.276695724636353 42.23686811670706 0 0 0
7657 58 1 2.5674729317268974 17.375043928899213 30.194690526159317 0 0 0
2329 16 1 13.362095353397502 0.4218491688288682 26.74852382928066 0 0 1
5860 48 1 2.6833050241305165 20.872821268176033 41.53882433533376 1 0 0
723 5 1 11.881054989617843 7.446442842930681 30.928243333168805 0 0 0
6990 54 1 3.69612339116493 9.28812486212778 37.36081350428228 0 0 0
6625 12 1 11.002101204468064 2.968861472119915 41.11471376220768 0 0 0
6994 54 1 6.951693914885592 9.773051806561265 41.378656414566336 0 0 0
5565 42 1 3.4599221448329684 17.385362255725184 42.53145498036563 1 0 0
7436 26 1 3.4911263299339153 14.103658948428045 37.46760125818278 0 0 0
8439 64 1 9.12617897491627 25.041164901953735 39.58626134407747 0 0 0
7965 60 1 6.366465560840407 21.440401776803256 36.31368416762632 0 0 0
7971 60 1 10.989962988101896 21.239294481411672 42.25241885977633 0 0 0
7872 58 1 3.266707406565467 18.481314551991563 37.62141886571416 1 0 0
9 55 1 15.475733722059653 0.7313691858853668 41.338121443152986 0 0 0
6395 48 1 7.2867825322057245 1.5520815409551696 42.835234406991404 0 0 0
6392 48 1 5.479737566437907 0.9467640318774304 39.36316609017639 0 0 0
7877 58 1 7.352129945921632 19.419530976201976 42.372289737181916 1 0 0
2027 14 1 4.569454680839396 22.812316924217534 26.73859070104336 1 0 1
7203 56 1 5.701280710905445 12.591969716784151 34.20255318969012 1 0 0
1728 13 1 15.98586693499333 21.520509193516546 36.30925408045039 0 0 0
7960 60 1 3.109935727582917 20.90029195615397 30.876889660507672 0 0 0
8185 62 1 7.03421154598607 24.00374236955639 42.53517474219544 0 0 0
6386 48 1 0.758324981100766 1.0114044563513733 33.47077051676662 0 0 0
6843 51 1 6.482335206331962 5.3775680419692335 41.437991117861664 0 0 0
5383 32 1 3.4909672697039507 12.483506623846196 42.50940648455212 1 0 0
3382 24 1 14.671923593358795 14.012643268592896 29.031897369637264 0 0 0
4058 31 1 15.77451532815352 23.672323633454667 29.82944064461773 0 0 0
7876 58 1 6.679825575524303 18.571451789297633 41.35752111258687 1 0 0
8180 62 1 3.0537890240081254 23.23650859963589 37.438672718187405 1 0 0
6396 48 1 8.491093913344093 0.9431525089712389 43.53387629721814 0 0 0
7206 56 1 8.076222862354744 11.958067815377744 37.15158738713435 1 0 0
1659 11 1 17.92564331275359 19.482525829260563 44.08065356655162 0 0 0
6162 62 1 3.495020301780823 26.031145875448235 42.6920976357724 1 0 0
2248 15 1 9.949331375267926 25.937890507016174 28.02743907900653 0 0 1
232 3 1 17.021569940493837 3.164733444653482 36.65373387298416 0 0 0
7667 58 1 10.643372076976181 17.116945166416407 39.96187258424779 0 0 0
8430 64 1 2.5319403497881168 26.21310374042401 30.114228854747527 1 0 0
3162 24 1 18.234272292335913 13.49518749656431 32.8258953238604 0 0 0
8429 64 1 1.8152604880913081 25.343646105149368 29.094785237189832 1 0 0
7662 58 1 6.065691978043714 16.335124342049102 35.47222169649269 0 0 0
8184 62 1 6.2731071846387705 23.207694336094306 41.46880901756677 0 0 0
6620 12 1 6.780392469901697 3.667411544391549 36.30155726357289 0 0 0
1658 11 1 17.27903467780247 18.54800718313702 43.00241516405862 0 0 0
456 4 1 17.655104527512236 6.009215304147849 44.26191115143435 0 0 0
7669 58 1 12.197838848050965 17.238229995837475 41.982100597271 0 0 0
8440 64 1 10.316947983470056 25.808821115195297 40.14436363055083 0 0 0
7199 19 1 2.213583180783208 12.664649278245792 30.334524600049697 1 0 1
6995 54 1 7.348338330883795 10.565752803333005 42.56690595555294 0 0 0
7666 58 1 9.593153314715131 16.302389727892805 39.21395577888444 0 0 0
6844 51 1 6.940892417224351 6.186529825638042 42.64588419631975 0 0 0
5083 38 1 2.1746929393083225 7.466001047365021 41.8346378793529 0 0 0
2331 16 1 14.894128064312328 0.5495898150484104 28.826294602097093 0 0 1
2629 4 1 13.76947655127049 5.858060812442514 27.972161782460574 0 0 0
7664 58 1 7.847815614925239 16.483309659237733 37.35440676706676 0 0 0
6387 48 1 1.0823997972373518 1.4616415604260729 34.867217286599306 0 0 0
7198 19 1 1.693161943499487 11.998823581150189 29.084684330541243 1 0 1
7970 60 1 10.918544597459189 21.005373680495598 40.737596068705564 0 0 0
2030 14 1 6.510278916092749 23.50370166376704 30.075406510441812 1 0 1
1643 9 1 9.771394495524584 17.223546636476637 27.86540469276703 0 0 0
6388 48 1 2.337794104711163 0.8703474392875878 35.47806472332668 0 0 0
6389 48 1 2.6996586086670624 1.510194178555026 36.81125266650716 0 0 0
6390 48 1 3.9196823962711638 0.9541490290852321 37.49685009505438 0 0 0
6391 48 1 4.269600748656225 1.6539662801844814 38.79497420521962 0 0 0
4627 11 1 1.8194991714076751 3.9361663736695083 40.945341876597766 1 0 0
2035 3 1 18.175159304954043 25.274820908334718 39.243630615702095 0 0 0
7201 19 1 3.9332344880898895 12.641741869489683 32.30709415520254 1 0 1
2667 20 1 18.224970793702862 8.14916406762728 27.65801827470458 0 0 0
6838 51 1 2.374367381940419 5.964573233211447 36.606907965561234 0 0 0
8182 62 1 4.586312409815599 23.179422147911566 39.618477162292336 0 0 0
4059 31 1 17.18595790921447 23.285075503933072 30.297251483567294 0 0 0
6951 49 1 13.460010847419912 8.283576152834993 44.490178414818175 0 0 0
7442 26 1 8.230438301265533 14.332769220437315 43.38519141017355 0 0 0
1429 9 1 17.526489696200425 17.159090952710223 38.01191509755268 0 0 0
6935 49 1 0.8994368273533375 7.970055973745991 28.477051794862557 1 0 0
8428 64 1 1.1052133943501123 26.243877877849158 28.041344775691783 1 0 0
7959 60 1 2.08316145579384 21.625863728694117 29.929857876625913 0 0 0
2927 22 1 14.950129777319761 9.548468259817204 28.69103688770646 0 0 1
5084 38 1 2.8786253113953046 8.334115600972092 42.84236741369439 0 0 0
8441 64 1 10.612320902383827 25.193837983762602 41.51031332658796 0 0 0
6615 12 1 3.065846302186005 3.074174608195188 31.151784990831704 0 0 0
6616 12 1 3.6798402571696567 3.718382713353472 32.40306668522672 0 0 0
6617 12 1 4.834165330966872 2.976305123316858 33.057476949585634 0 0 0
8181 62 1 4.0111127308788035 24.04156186967764 38.41973621633579 0 0 0
7209 56 1 10.402017250725278 12.515506487833667 40.227389300141084 0 0 0
1680 11 1 5.441084952171031 19.227928689472893 27.823286410637763 0 0 0
7440 26 1 6.565911460343497 14.196855226232731 41.39782154248857 0 0 0
8437 64 1 7.559656182052168 25.118638100539297 37.486052861569235 0 0 0
8438 64 1 8.837719902294934 25.64361946321091 38.21074976626874 0 0 0
2251 15 1 11.970838196535437 24.87341127636766 31.08673803666847 0 0 1
6621 12 1 8.041901877587437 3.067602199362631 36.80503367487485 0 0 0
4629 11 1 3.412600029053425 3.923490771445482 42.80504503362269 0 0 0
4626 11 1 0.9036401485855501 3.115933764128631 39.96154088022226 1 0 0
7956 60 1 0.23329347087164037 20.625882672070073 26.802322101393678 0 0 0
7211 56 1 11.882651860361772 12.681869371101783 42.30895864750104 0 0 0
7212 56 1 12.679763158575726 11.98354969317094 43.448700574909196 0 0 0
7434 26 1 1.850747321531882 13.822682500846039 35.51218032406626 1 0 0
1418 9 1 5.631227976616908 14.988140621513663 28.4671132797337 0 0 0
7972 60 1 12.412935222372878 20.910701984657983 42.67561849658243 0 0 0
1657 11 1 16.33336401968582 19.308832759113606 42.10523828644057 0 0 0
6841 51 1 5.1055642759551985 5.192779771551765 39.2588945697335 0 0 0
2032 14 1 7.992042710861739 23.946943158455056 32.109324684109836 0 0 1
3614 56 1 18.32426624873348 18.55143354932268 32.806892699360986 0 0 0
7661 58 1 5.6720402307032565 17.232975788987765 34.31804479354982 0 0 0
7200 19 1 3.288020991767142 11.957900323712137 31.070402647330965 1 0 1
6941 49 1 5.5563020050434435 7.9384929067427175 34.667865233900194 0 0 0
6942 49 1 6.245004146954498 7.1132839727668715 35.73152861140345 0 0 0
6943 49 1 7.046183258316247 7.992562159609929 36.66459104128515 0 0 0
6944 49 1 7.954041846181242 7.074988408585872 37.52588491588905 0 0 0
6945 49 1 8.665469960847068 7.870128547740546 38.70745902451513 0 0 0
6946 49 1 9.47983110369616 7.049775489349449 39.65643126308622 0 0 0
6947 49 1 10.17835173709563 8.01584401969492 40.586797508957076 0 0 0