LAMMPS data file via write_data, version 23 Jun 2022, timestep = 11112117

8487 atoms
2 atom types
8471 bonds
3 bond types
8455 angles
3 angle types
8439 dihedrals
3 dihedral types

0 36.89775039 xlo xhi
0 26.67072 ylo yhi
45.505705449694986 191.24589895028035 zlo zhi
0 4.585303820767374 0 xy xz yz

Masses

1 14
2 15

Pair Coeffs # lj/cut/omp

1 0.0914 3.95
2 0.1947 3.75

Bond Coeffs # harmonic/omp

1 449.5 1.53
2 449.5 1.53
3 449.5 1.53

Angle Coeffs # harmonic/omp

1 62.0967 114
2 62.0967 114
3 62.0967 114

Dihedral Coeffs # opls/omp

1 1.411 -0.271 3.145 0
2 1.411 -0.271 3.145 0
3 1.411 -0.271 3.145 0

Atoms # molecular

2813 24 1 18.41822188587347 9.659413823204108 51.80631202022756 0 0 0
1169 10 1 3.800178536997008 16.483503524644014 52.51829426889667 0 0 0
1510 6 1 5.7699875725289935 9.772611588370975 48.044180049248425 1 0 1
1604 14 1 9.282948229337942 22.960303326789255 57.59976283693326 1 0 1
1392 12 1 3.922856451676512 19.36815969817134 46.8967760540964 0 0 0
3518 9 1 15.772734528175183 22.10393363203072 55.45041132827056 0 0 0
3032 23 1 14.239482867639111 8.935526827065209 49.17357140939571 0 0 1
1233 1 1 6.029208634065184 4.4687004429773705 48.70839239714628 0 0 0
651 3 1 4.913493623564343 11.864811460104706 52.57474644306066 0 0 0
5495 43 1 16.863876104550023 19.882632545776985 46.950433559250975 0 0 0
3794 34 1 14.260769621460806 26.0836672143896 52.54807493691513 0 0 0
1677 16 1 6.561061951795248 24.039980965296593 49.10794762648705 0 0 0
3424 58 1 13.017325049255765 19.08473302583158 46.21417437343163 0 0 0
3119 25 1 15.281572931268418 12.937611979012514 53.933417940821805 0 0 1
3383 28 1 14.596693649835407 18.418034407971874 54.88030033107159 0 0 0
1099 20 1 13.25723542509197 22.744020617891607 47.595952018669536 1 0 1
3384 28 1 16.062902135569963 18.283983558807257 54.57269707856021 0 0 0
2132 19 1 6.297713340424772 0.7118397293604279 47.411977665365114 0 1 1
1165 10 1 0.9503312176034703 17.159305487943417 49.74336922114918 0 0 0
1166 10 1 2.2774041413136255 16.996817380589995 49.30383918486115 0 0 0
1697 64 1 0.49713031205405184 26.311969405689457 48.10362251986822 0 0 0
5496 43 1 17.976127699643495 20.49682530003613 47.783930654130444 0 0 0
8293 62 1 1.964013296607162 0.5659530040749465 53.76075591818464 0 1 0
654 3 1 6.483984235057643 11.873609616408903 54.92102230662253 0 0 0
3034 23 1 16.21201960509554 10.076506870759745 50.424210223900886 0 0 1
4613 22 1 15.548950597461719 9.189284092373565 54.9496361742211 0 0 0
4649 6 1 2.344116208537104 10.14409990632512 45.98110771254376 1 0 1
3507 9 1 8.771842238951194 21.59878283323163 46.02613316668584 0 0 0
7054 20 1 15.738080242170632 24.301750039918495 49.79653356955289 1 0 1
7507 37 1 0.7469638658582387 16.008874267902126 58.04529715853462 1 0 1
7458 21 1 14.7214842159295 4.86610951036636 49.386862445759455 0 0 0
2537 6 1 4.323144489696306 11.154283938891947 47.116681693577775 1 0 1
4033 15 1 16.67350844560641 2.00995924123724 50.37287568676352 0 1 0
4011 52 1 10.272904044151522 25.722451805876595 46.387098666068795 0 0 1
3417 29 1 10.764558874387959 16.216569746578703 49.1480358385522 0 0 1
648 3 1 2.1054756835586206 11.42977216566147 50.27101563559845 0 0 0
3516 9 1 14.189728748513907 22.270161064108258 53.554907032932775 0 0 0
5975 47 1 17.4947015290706 25.609081428796486 46.24374250409691 -1 0 0
6898 46 1 0.47746267591935526 6.992942788990198 57.91179106273502 1 0 1
2247 20 1 16.25567174309378 23.135137915158477 50.78257178847313 1 0 1
4283 53 1 17.32079775904567 2.7807485580968416 45.76221861042993 0 0 0
291 1 1 1.987843157987362 6.595915396578574 45.55168889167163 0 0 0
4029 15 1 14.186021347675108 0.23041677178289977 46.31567498786494 0 1 0
3965 1 1 14.431155761812409 7.792401044819745 58.75602047135776 0 0 0
5213 40 1 17.92733955477396 16.74446191943994 45.9826349446086 0 0 0
1673 16 1 3.1578898999111975 24.379589754075344 46.33970220349599 0 0 0
3111 25 1 9.6931176872138 11.9617667863839 47.23752550491903 0 0 1
3121 25 1 15.606590627944309 14.96110427913437 54.943830487217284 0 0 1
6646 51 1 0.7081715787743006 4.914587637902989 52.22298128139272 0 0 0
1173 12 1 7.036657429094733 18.48911543071172 51.0263170005957 0 0 0
3112 25 1 10.193748170275217 11.117308538968484 48.293729348450384 0 0 1
2141 34 1 14.028840199654189 2.7313121853299456 53.2589973310488 0 0 0
657 3 1 7.958889278813335 13.425706278820352 57.837400089813684 0 0 0
1595 14 1 3.7402247844918253 20.06056048057253 51.27691775110033 1 0 1
6648 51 1 2.069606332884502 5.031664607768897 54.23843878266791 0 0 0
879 8 1 6.537896071923377 14.377831186811544 49.6647825660034 1 0 1
954 10 1 9.225628374362312 18.55066260644319 59.11595883753319 0 0 0
222 3 1 2.7142911218735204 2.1347619733532714 50.07808478033651 0 0 0
6960 41 1 2.967698328260457 9.307382387067427 56.74086021673266 0 0 0
1700 64 1 2.57992143629535 25.527862368761024 51.01768643255936 0 0 0
6962 41 1 4.385174654497603 10.533421315526143 58.451217340845275 0 0 0
5075 39 1 16.650420555194472 11.856241040105616 46.09500730472518 0 0 1
3030 23 1 12.946090886422523 9.955961965474026 47.31070969120244 0 0 1
7833 60 1 1.6503462686468253 21.485454595238807 55.4655496907644 0 0 0
221 3 1 1.9012978478685896 3.209424598228935 49.760826967877875 0 0 0
3035 24 1 17.54657813026587 10.460927163373311 49.77376582658712 0 0 0
3420 29 1 12.242157541120385 17.1408561421902 51.85376312976504 0 0 1
381 5 1 3.393793821259129 6.1438646903848655 50.55739056006131 0 0 0
650 3 1 3.4852609716451743 12.039019806295249 52.01524429366956 0 0 0
8329 6 1 3.0738004744948397 11.481351673905191 46.35625308320578 1 0 1
4405 21 1 13.845381745629394 4.694041661555236 47.06399544884148 0 0 0
3430 58 1 15.808450788497321 19.865496003553137 51.62681698528965 0 0 0
5212 40 1 16.745119351543863 15.94921651341925 45.77368711328135 0 0 0
106 22 1 11.485464850351947 6.205110909191098 50.33707045484069 0 0 0
5141 20 1 15.314652162157373 23.73598916560044 48.55443905306164 1 0 1
6758 22 1 16.6729731150567 10.156011421577976 55.09158023420219 0 0 0
2130 19 1 3.799612680520731 0.7297398259226259 46.96018077193616 0 1 1
3429 58 1 16.002995565867987 18.801105615680964 50.721516777277344 0 0 0
3521 9 1 17.863299996999338 23.16308156001653 57.82916191209709 0 0 0
3416 29 1 9.554584337494763 15.585130943154454 48.36174404299919 0 0 1
3512 9 1 11.60151824107543 20.66416586716245 49.99445359364627 0 0 0
3941 1 1 8.27562794269462 4.924676101549722 52.617579586638335 0 0 0
3031 23 1 14.15806396660495 10.173350664849469 48.23984906890967 0 0 1
4034 15 1 17.31805837399207 1.3874305136812541 51.505886021622246 0 1 0
3116 25 1 12.721727051540245 10.818831186055851 52.235927062176124 0 0 1
3113 25 1 10.407950584805278 11.97562206891316 49.53335048684497 0 0 1
385 5 1 5.330432460642663 7.429453574329579 54.7922792996031 0 0 0
4572 36 1 18.063763831527503 8.906944407171181 46.358028047731636 0 0 0
3519 9 1 16.02556159567069 21.843252683843428 56.918150361496686 0 0 0
1183 12 1 14.599549779302919 20.495005011796756 59.40662460426866 0 0 0
4030 15 1 14.450951338941405 0.24108244556667602 47.77775008290899 0 1 0
989 22 1 8.156611147510826 7.619330239115752 46.57724425579516 0 0 0
422 54 1 1.0136275906106247 7.297612957579223 49.045121558458874 0 0 1
5128 1 1 3.8851597820352266 6.1953554905912025 46.73412107083804 0 0 0
3510 9 1 9.745219035719488 19.741404879779697 48.564014707014245 0 0 0
3511 9 1 10.873349285025936 19.380339327131583 49.515538041344534 0 0 0
813 22 1 13.83373862352131 7.876039508601734 53.946785584132755 0 0 0
4571 36 1 16.61192457477378 8.326147349054844 46.46253295642448 0 0 0
1701 64 1 3.999710488588684 25.808601544541826 50.942213237568225 0 0 0
1170 12 1 6.188720309124914 19.4178490867054 47.73795935531871 0 0 0
7563 12 1 3.3311079838280038 18.137778465904585 57.692373740322864 0 0 0
3517 9 1 14.484964728479234 21.541612473240413 54.8692366171002 0 0 0
1678 16 1 6.6162421773828335 22.69254328590785 49.85014644233014 0 0 0
1603 14 1 8.540535295019506 21.711131552798864 57.76166583044372 1 0 1
1967 20 1 14.296720022021633 22.59227186674807 48.60943369975845 1 0 1
3114 25 1 10.957982822337216 11.0644300809464 50.65264411535693 0 0 1
2940 22 1 9.957205096412704 7.284139177985096 48.43177826449949 0 0 0
4036 15 1 18.409591106341196 2.0657462740381707 53.588482567716895 0 1 0
3425 58 1 13.630120204566275 19.222730563788623 47.57540968009797 0 0 0
3139 27 1 18.26644699528956 16.53553970000109 52.487020570652724 0 0 0
4035 15 1 18.390845392020005 2.2690423289056665 52.12046624366744 0 1 0
1594 14 1 2.697369732993671 20.5926205759719 50.33869487032209 1 0 1
2 3 1 5.528806003892447 2.1500169630019466 53.96557391286147 0 0 0
1343 6 1 10.453797966792472 10.698151299392219 54.768935794480655 1 0 1
2357 19 1 9.148813023935977 3.4516649994787856 46.14629398496681 0 0 1
5076 39 1 18.033315153610985 12.25174141309451 45.90467209408167 0 0 1
5215 40 1 17.932881553217626 16.46323424516361 48.55148010358524 0 0 0
2359 19 1 10.995154613876089 2.6113454587150056 47.64779697864661 0 0 1
7835 60 1 3.5579071962815325 22.76354088715113 56.62105969023524 0 0 0
2812 24 1 18.425544106993367 10.835896430699737 50.865080763070566 0 0 0
1708 64 1 7.628031010237037 25.966753195536928 57.468173911930485 0 0 0
7274 5 1 5.327082188645265 15.04999742002626 59.47773271579839 0 0 0
4 3 1 6.338022707070902 3.73103204954598 55.790326820751254 0 0 0
881 8 1 8.257195180114497 14.136721037603683 51.28431524660753 1 0 1
4284 53 1 18.103255427656155 4.009581939924599 46.14271822925669 0 0 0
7613 57 1 1.031086908196129 20.225276804968203 59.5749812331891 0 0 0
1172 12 1 6.607549885032514 17.913698476518366 49.69794970528223 0 0 0
2137 63 1 9.403990847479 0.13189386596558772 52.52465535984819 0 1 0
1171 12 1 5.682282510335243 18.82428158502651 48.973224016270294 0 0 0
1842 6 1 6.873379235792212 10.077101996568157 50.01735861412008 1 0 1
309 5 1 9.021030245003558 7.888701836415667 57.98193723080162 0 0 0
2136 63 1 8.26244288563979 26.014925810002445 51.79402706927952 0 0 0
7889 6 1 11.91864820159265 11.431899428846648 56.46768929009164 1 0 1
1675 16 1 4.93480979831658 23.00979964330302 47.46418571291067 0 0 0
878 8 1 5.390025234423351 13.843243165621084 48.58807438544493 1 0 1
7838 60 1 5.386600920345511 23.922909582990055 59.668601955920735 0 0 0
178 1 1 5.429926775839377 4.666767050961702 47.3097610810474 0 0 0
3415 29 1 9.36577045756009 16.085565531745548 47.00943721213622 0 0 1
310 5 1 9.90007112742459 7.988185708995918 59.24281528847835 0 0 0
2358 19 1 9.498890747793835 2.929794091228257 47.56739497172307 0 0 1
659 3 1 10.089199904262566 12.859083325452032 59.325660048494306 0 0 0
7272 5 1 4.198701275466417 13.78053192598342 57.37596083372394 0 0 0
3349 28 1 16.04235161231128 17.886238508920794 57.10489611081588 0 0 0
1168 10 1 2.7685806932998958 16.92943527355879 51.64860242635796 0 0 0
5629 1 1 7.736273707749879 5.323014035516173 50.1468796507937 0 0 0
1596 14 1 3.3131635961543173 20.22151096450022 52.6540173022681 1 0 1
3115 25 1 12.324132103830255 11.540159084623408 51.046352365606175 0 0 1
6539 6 1 5.675161296759211 10.419894016954158 49.296332876086495 1 0 1
1436 22 1 10.956103191872707 6.266191346880169 48.88365681530897 0 0 0
1259 6 1 9.196644291477297 10.189332526668558 53.961315659379565 1 0 1
1684 16 1 10.799387472137386 24.285132024522383 54.27552621160224 0 0 0
1918 63 1 12.770102479749845 1.2109363003726803 56.521071303444174 0 1 0
6 3 1 7.815866021378957 4.909200548001009 57.651488307648876 0 0 0
5382 6 1 9.255497149335822 9.237645694901001 52.84567521722159 1 0 1
2129 19 1 2.5131936508686383 1.4506292138807457 46.6529433848931 0 1 1
4709 21 1 15.376396390945253 5.749408396721638 50.5429970746418 0 0 0
5680 6 1 7.020146844660724 8.627962784754217 50.069753272751555 1 0 1
890 8 1 13.6474355261297 14.918921157106157 58.811461221006134 1 0 1
1682 16 1 8.775245042065725 23.124026838013606 53.334526164198344 0 0 0
6957 41 1 1.4270969829091136 8.617129870132414 53.3699669417485 0 0 0
7123 6 1 14.132727567751568 11.368180623188994 57.96279478387257 1 0 1
3508 9 1 8.897464036068184 21.83658672650707 47.54550507238501 0 0 0
3796 34 1 15.318061090258405 26.352052625437832 54.76787004087591 0 0 0
884 8 1 10.152461225569759 14.920475013279274 53.4826771593255 1 0 1
1919 63 1 13.628019703934562 1.7646962827506782 57.60341990429279 0 1 0
946 10 1 4.391001244116952 15.157278033151707 52.32292037849742 0 0 0
7837 60 1 4.284831991944858 23.992240484096758 58.738560929994776 0 0 0
1550 6 1 11.32181801180156 9.544819464199117 55.25566084183389 1 0 1
6958 41 1 2.268913096108701 8.376747815493042 54.593790999989324 0 0 0
1180 12 1 11.762481981465367 19.46723203888042 57.37082811596179 0 0 0
658 3 1 9.172452240240409 13.777784324034776 58.60668505330944 0 0 0
2145 34 1 16.355388808599802 4.161630822316085 55.96895763724194 0 0 0
1592 14 1 1.7005078884303457 22.318264595019713 49.48076167213412 1 0 1
3122 25 1 16.15677524849782 14.006982189140595 56.126550725998456 0 0 1
1681 16 1 9.698247377430855 22.877758375813286 52.12668424551358 0 0 0
1920 63 1 12.734306129353678 2.434768415349777 58.64750018339814 0 1 0
1707 64 1 7.461407537426407 25.563484617969305 56.026714357629054 0 0 0
1601 14 1 7.181074918059486 20.16918306530316 56.4853020055277 1 0 1
6397 62 1 0.573073921063427 2.555543556589992 58.90885918628658 1 0 0
887 8 1 11.75373504571263 15.774347722769756 55.53515760537184 1 0 1
7267 5 1 0.956522234712613 14.211529089176416 52.965546182591275 0 0 0
7996 20 1 18.285044455420636 24.015378390815652 52.11654944800738 1 0 1
8299 62 1 4.632495716486855 2.5065705165397776 59.692711225631776 0 1 0
4014 52 1 10.798667701751926 24.33546195272178 49.56464784953567 0 0 1
3138 27 1 17.67059146798688 15.205963574046114 52.38449225530273 0 0 0
1606 14 1 9.885568914625674 22.10881895670416 59.75342968183365 1 0 1
4103 1 1 7.194568195958669 5.38227106819172 48.73387205196574 0 0 0
1391 12 1 3.300003118520424 19.105562458372034 45.620157680169605 0 0 0
6505 20 1 16.786921619803664 23.76658332593023 52.05000739916051 1 0 1
649 3 1 3.1729826549067224 10.880292355183409 51.145895465021226 0 0 0
3132 27 1 12.738115703065857 13.976683769574658 47.70625774592516 0 0 0
886 8 1 11.235498063583664 14.45524434628228 55.720834877472434 1 0 1
1602 14 1 7.639579202806651 21.661655739735064 56.56425288250936 1 0 1
8295 62 1 3.2213880498214045 0.11531042305767039 55.69919416680026 0 1 0
1605 14 1 9.360243126290822 23.31869459154114 59.08926180942537 1 0 1
2144 34 1 15.482101362304242 5.197994364223211 55.159849077434586 0 0 0
6398 62 1 0.696533222457871 3.7065526278840464 59.85613927246897 1 0 0
3350 28 1 17.27023688464558 18.317636818719325 57.93706783708144 0 0 0
6464 22 1 16.97660400837841 9.71117952040964 57.60883363815555 0 0 0
6546 1 1 5.238131367742742 6.212912015260458 47.439032798098495 0 0 0
3798 34 1 16.77853187556058 26.264219861588494 56.80493105398474 0 0 0
3382 28 1 13.46857772017722 18.33090551163623 53.8234151207546 0 0 0
3873 22 1 15.069440613670194 8.663517053342954 53.633227450993594 0 0 0
5976 47 1 18.337089426897837 25.340331657383295 47.50512212262168 -1 0 0
1685 16 1 11.615343423744962 24.69802222415068 55.41173154956337 0 0 0
2131 19 1 5.126688481186601 1.4774945534996096 46.995268632212344 0 1 1
7834 60 1 2.31041835411445 22.110970141689 56.71559506135703 0 0 0
4012 52 1 10.40664972319625 25.78668314660152 47.853580541588165 0 0 1
5497 43 1 18.23865408887936 21.922097397629113 47.663465622733675 0 0 0
5211 40 1 15.515448812665179 16.58062238076285 45.5181708262283 0 0 0
220 3 1 0.5706291107438578 2.9676660308404075 48.914191883273276 0 0 0
6086 1 1 13.540392674372143 6.502610831033654 58.55328644888344 0 0 0
5494 42 1 15.906212134981613 20.90111085553016 46.23764604386711 0 0 1
7565 12 1 5.115972321858726 19.285041400574197 59.07546505607726 0 0 0
2866 16 1 13.396387084168097 24.58811057811392 59.37570767806466 0 0 0
1591 14 1 1.7571181110109346 21.157413389775833 48.59104932885207 1 0 1
2362 34 1 12.163638069584382 2.544762688865774 51.21378505135054 0 0 0
949 10 1 6.327781604370583 15.748456722824125 55.54239468495091 0 0 0
2143 34 1 15.209696961902473 4.704208273892598 53.92796247499352 0 0 0
653 3 1 5.112074259139168 11.085288825778417 55.0201954532697 0 0 0
4032 15 1 15.945607099094383 1.0817219282845292 49.61598503225498 0 1 0
3131 27 1 12.07625118481657 14.179445599947401 46.390736844295915 0 0 0
1163 10 1 0.8966747066502545 17.482313056518304 47.31324044096086 0 0 0
3029 23 1 13.110404357338146 8.724211170604159 46.314318777569085 0 0 1
1593 14 1 2.535748213087864 22.090777392699586 50.73817555562879 1 0 1
307 5 1 7.275741568926527 9.215163831780716 57.69643347465136 0 0 0
1734 1 1 9.08362708087955 4.810569728328112 53.88171620973128 0 0 0
3137 27 1 16.56899496388848 15.200439265391006 51.45247492544758 0 0 0
869 3 1 0.2610619458966115 12.52983354910668 48.748492897034815 0 0 0
1917 63 1 11.944269377974663 2.0142058718872944 55.60488362146826 0 1 0
1393 12 1 5.409983005801851 18.94274038760813 46.636163181460404 0 0 0
3418 29 1 10.946184470681482 15.414889288461698 50.38776857289134 0 0 1
4286 53 1 18.366528871594166 4.390018044045062 48.47391719166328 0 0 0
1709 64 1 8.421307947462187 0.5121259005875644 57.43866181213706 0 1 0
2536 6 1 4.454029488918937 9.693695935455327 47.42484661867293 1 0 1
3607 22 1 11.491341153038503 7.571825390283715 50.9803833253967 0 0 0
7564 12 1 3.846396851837157 19.343418396762825 58.35797620705683 0 0 0
1676 16 1 6.1398478398626795 23.875495864335168 47.70433832209864 0 0 0
3118 25 1 14.750093257816285 12.032680149774528 52.827171232414045 0 0 1
2134 19 1 7.593315701013592 0.37013533263730364 49.619278801221206 0 1 1
7830 60 1 0.31442723997168265 24.11812181335689 52.736282061088346 0 0 0
6964 41 1 6.135893730120713 11.55166492471345 59.818854265785596 0 0 0
1683 16 1 9.697846457042672 23.246534704781187 54.53349831635515 0 0 0
382 5 1 4.606469814317765 6.0187106754554165 51.524306693504094 0 0 0
3353 28 1 18.784830145419775 18.645788965621094 59.82425506596984 0 0 0
1702 64 1 4.639261823245618 25.41489536034466 52.22330990002394 0 0 0
885 8 1 11.251991731701137 13.953009547023528 54.262257587213625 1 0 1
3133 27 1 14.243873395776241 13.621077776675653 47.72462985836763 0 0 0
1174 12 1 8.12271690683912 17.463989639500948 51.74157009230793 0 0 0
6959 41 1 1.875369802137679 9.380413828012493 55.62447117228669 0 0 0
3414 29 1 8.029462336421291 16.638277864524063 46.76048070315629 0 0 1
3428 58 1 15.098485604161922 18.887279452059786 49.53801969819351 0 0 0
871 3 1 2.421755640100412 12.829379121835446 50.221028034565904 0 0 0
6649 51 1 2.154152406533984 3.735680139925269 55.098879319846894 0 0 0
3795 34 1 14.452500870800346 25.552957724352385 53.94115638621575 0 0 0
4016 34 1 12.530696920119823 25.14276455308297 51.10429118200419 0 0 0
7 3 1 8.608370837869717 4.336817314473731 58.79093376005085 0 0 0
2133 19 1 6.286078629816563 0.8686290066464992 48.921318939966355 0 1 1
1267 6 1 8.06551969493855 8.221483072648853 51.08424733031222 1 0 1
870 3 1 1.3641257198040482 13.553944253765922 49.242259097798154 0 0 0
2938 6 1 12.11380594602572 9.920085715343296 56.362198065541435 1 0 1
2135 63 1 7.331042311754026 0.30412353195772557 51.166583874590714 0 1 0
7561 12 1 2.597798951713798 17.362417332550724 55.483000550842426 0 0 0
386 5 1 6.017503848190059 7.439004400683055 56.18576457232615 0 0 0
1440 16 1 13.174693871166998 23.740051557296734 57.249486558746845 0 0 0
90 6 1 13.410507131765018 11.411616000835982 59.29264926772876 1 0 1
7644 1 1 12.462857605673328 5.1049388699624325 56.43793308174682 0 0 0
948 10 1 5.666357270923189 16.122187645511172 54.195825013295305 0 0 0
3515 9 1 12.800926378326475 21.99784480639867 52.950264893813234 0 0 0
947 10 1 5.438410334972403 14.852620628030582 53.35132538247875 0 0 0
1179 12 1 11.29508872383738 20.169794676645722 56.107919102449735 0 0 0
3520 9 1 17.359909828793413 21.77929544764132 57.549956266447836 0 0 0
3426 58 1 13.520685521868444 17.736971146520897 48.1045674705201 0 0 0
6719 22 1 17.50494044858723 10.488906062550798 58.81321609261539 -1 0 0
3120 25 1 14.636626434110655 14.308940435194483 54.002912927326896 0 0 1
953 10 1 9.536985736421968 17.173056104923397 58.535727162728946 0 0 0
7273 5 1 4.356973880355306 14.97626006131987 58.330157495682776 0 0 0
5 3 1 7.337835795641089 3.6009095949302377 56.92675217974151 0 0 0
8292 62 1 0.5660329317487436 0.6034559749017279 53.089544235992435 0 1 0
2363 34 1 11.863921572113702 3.580361871225301 52.14547096271014 0 0 0
1710 64 1 9.703867472714665 0.2735455268273572 58.016123614318865 0 1 0
1674 16 1 4.203792873070082 23.418282334246133 46.21283881843363 0 0 0
3427 58 1 14.789733129010903 17.593925948775997 48.9902725751112 0 0 0
1916 63 1 11.312400289220548 1.0442305304321786 54.76830104204623 0 1 0
4015 34 1 11.644501871403692 25.460980444838746 49.95989349579128 0 0 0
655 3 1 6.844964204351078 12.06998511007184 56.24993660762154 0 0 0
7271 5 1 3.1639609174259746 14.137671450254569 56.22178477183516 0 0 0
882 8 1 8.274860663239052 13.327504655662064 52.66339635455515 1 0 1
7895 6 1 7.826582051075288 8.964815845673341 52.44809456297244 1 0 1
4010 52 1 8.996982609289876 25.045662102145425 46.05034807819915 0 0 1
2147 34 1 16.7881896758811 5.2191916374684615 58.10398312591266 0 0 0
1178 12 1 10.341289485079061 19.418725852163305 55.26279234822002 0 0 0
2023 22 1 18.810764052659778 10.042458217070354 59.42966302906484 -1 0 0
3136 27 1 16.304180749617956 13.872149512996007 50.958095833986526 0 0 0
1680 16 1 8.710500143271073 22.092081532224892 51.22108335876196 0 0 0
7614 57 1 1.0099968901400855 21.763098564012964 59.876886005486675 0 0 0
3431 58 1 17.18168883582621 19.96242798609277 52.078537955026 0 0 0
131 20 1 13.905129362845697 23.243803806581735 46.304835309277294 1 1 1
952 10 1 8.999650883588933 17.125823780384223 57.14692981182873 0 0 0
7967 22 1 13.36756100427712 7.695291933675031 52.40294939593137 0 0 0
6963 41 1 4.629904043397097 11.382395545367528 59.663153324689574 0 0 0
8294 62 1 1.9782706100712826 26.336419803612547 55.039691313495545 0 0 0
5587 21 1 16.846591283829955 5.614161075101459 50.70242876115087 0 0 0
3421 29 1 13.410513454278327 17.148583148878686 52.90876488374405 0 0 1
8296 62 1 3.0836348876629818 0.22956211279470093 57.187370424296326 0 1 0
3509 9 1 10.15446847114357 21.1795206665128 48.12378951234257 0 0 0
2149 34 1 18.77858857056547 4.72672830192331 59.80636898497569 0 0 0
423 54 1 2.117434368015705 8.083149082433085 49.80302344938055 0 0 1
3134 27 1 14.776804672605985 14.094540697389322 48.98664787705233 0 0 0
1847 21 1 13.362024047471412 5.37817817163735 45.92872977193596 0 0 0
2142 34 1 15.404310263277328 3.2743042206828554 53.700711919360124 0 0 0
2146 34 1 15.895574754873676 4.33455385845811 57.32271188157471 0 0 0
6961 41 1 3.0124719653773133 10.383823509149723 57.77954030008969 0 0 0
223 3 1 4.01929105521244 2.5229026283082896 50.80988412880178 0 0 0
7463 16 1 12.586529789866562 24.678648891470992 58.289523967600395 0 0 0
6956 41 1 0.5230203589435347 9.922131923963951 53.40274304028862 0 0 0
3123 25 1 17.54788573615426 14.181935348351486 56.89267466723199 0 0 1
1181 12 1 12.979481372033156 20.318796118464487 57.86586919604643 0 0 0
4462 6 1 13.341034798026037 12.058761414247298 56.75775138671759 1 0 1
3084 18 1 17.180524906574423 14.100986095391544 58.383210599330106 0 0 0
4031 15 1 15.58858132496472 1.1485240855447911 48.16394004121943 0 1 0
880 8 1 7.331406655316922 13.350391922955083 50.40555405502924 1 0 1
8 3 1 10.1042618706597 4.321995416216652 58.83887163506541 0 0 0
1 3 1 5.246112889396259 3.3602968179669306 53.15817923442786 0 0 0
3432 58 1 17.4989096328906 20.618921546384417 53.32620972850635 0 0 0
883 8 1 8.639085972966399 14.48312673870935 53.558231674604755 1 0 1
876 8 1 3.628480351130359 14.633038828619906 46.885337695300464 1 0 1
1699 64 1 1.9757288429164441 25.662585459227603 49.53861819807172 0 0 0
3514 9 1 13.078757835890364 21.82717284061728 51.47819769198301 0 0 0
3522 9 1 18.458189153921545 23.243870768058336 59.194638924065195 0 0 0
5347 21 1 17.44700000144933 5.941757420631944 52.10713759455857 0 0 0
2988 22 1 16.740411875524032 10.744108180926291 56.48346592468094 0 0 0
1921 63 1 13.769498044044065 3.0379875313417704 59.57899459284184 0 1 0
2138 63 1 8.86765903219774 0.851627639988004 53.6953732911718 0 1 0
3135 27 1 16.296682159574136 13.558087758420431 49.45213093091756 0 0 0
298 1 1 11.70525336467491 5.708101029915304 55.275636229567894 0 0 0
3797 34 1 15.548763581153915 25.703062878294915 56.117599790964576 0 0 0
3523 9 1 18.342702769930057 22.08117936320836 60.00551930304908 0 0 0
1686 16 1 12.06499809462945 23.587282886905562 56.257773767406654 0 0 0
3800 34 1 17.479272073335416 0.6953210163836182 58.99997256833791 0 1 0
1177 12 1 10.169057033287707 20.06191822210368 53.8640671876809 0 0 0
891 8 1 14.134228274132608 16.27498690877797 59.373618122979885 1 0 1
2057 1 1 10.301297259743913 6.121785794077866 55.731825902133195 0 0 0
383 5 1 4.472678789336733 6.9027571560527194 52.80336656484438 0 0 0
1706 64 1 6.386703665587254 24.663698841483853 55.73938885487295 0 0 0
1600 14 1 6.032401691776892 20.400898958313213 55.62142673853596 1 0 1
7832 60 1 1.542891072313575 22.69094016763284 54.53250147590201 0 0 0
1176 12 1 9.665915792747963 19.05708045526151 52.88871732012115 0 0 0
2360 19 1 11.491473979559387 2.0364636497349102 49.017417189622215 0 0 1
4028 15 1 13.068648146060474 1.0351266681779592 45.793475085305964 0 1 0
380 5 1 3.4604785086681984 7.542197509720565 49.952366403979006 0 0 0
7356 22 1 9.506765512087926 7.041310364952721 46.99397299006033 0 0 0
2361 34 1 11.021074076628375 2.7399773561368304 50.274926859099295 0 0 0
6652 51 1 3.767626045478826 5.262586002712651 57.961714082512444 0 0 0
2356 19 1 8.622410746738755 2.1215570387413876 45.77501926297795 0 0 1
950 10 1 6.8725215733867735 17.030707104545613 56.17998466297695 0 0 0
3513 9 1 12.285836828816434 20.436839976299613 51.332169599350784 0 0 0
1515 1 1 9.128686979721136 6.148175225568749 54.6822220472153 0 0 0
6512 21 1 14.260678637345285 5.635232387410366 48.18567923548293 0 0 0
1705 64 1 5.896419287360107 24.529980991075075 54.25338547000629 0 0 0
2645 22 1 11.921879410851675 7.485519462483361 52.41183171342941 0 0 0
3799 34 1 16.711841805457958 0.8467661064992572 57.723722435959125 0 1 0
308 5 1 8.787582333067169 9.281854112604254 57.72071395399534 0 0 0
7270 5 1 2.220701890965607 13.031135353525643 56.21555336815818 0 0 0
7269 5 1 1.1328897925830939 13.483382873201377 55.22321884284132 0 0 0
3348 28 1 16.744919560913686 18.417621458121236 55.88154157163039 0 0 0
8298 62 1 3.6001217366427865 1.3855702334109596 59.11768854818403 0 1 0
1711 64 1 9.055156655070313 0.49965639979403265 59.44149315940071 0 1 0
8297 62 1 4.282998349090935 0.7141429830537505 58.03361412795675 0 1 0
1599 14 1 6.5880185444380155 20.335800432636102 54.26552297251914 1 0 1
2148 34 1 17.905189653495366 4.338025394882491 58.54809955887261 0 0 0
2139 63 1 9.966836966189161 1.6087214493235107 54.535877583368524 0 1 0
7562 12 1 3.3978316475071906 18.501570643632107 56.13144744394599 0 0 0
1698 64 1 0.49293807198702577 25.625923234865297 49.44645983582169 0 0 0
4654 22 1 8.36987152442449 8.688730800141162 45.59390494479184 0 0 0
4017 34 1 12.916473518262954 26.35395663865725 51.95883933724079 0 0 0
1679 16 1 7.421654486243175 22.86573112422706 51.18449724282074 0 0 0
3419 29 1 12.087073587005133 15.803472390465345 51.29464948554638 0 0 1
2140 34 1 13.173302696705676 3.9655337972659197 52.70453919810117 0 0 0
293 1 1 3.1857896478062906 4.941277703135277 46.57707693105566 0 0 0
224 3 1 4.0458889742271795 2.823429570680661 52.32054242244842 0 0 0
1703 64 1 4.034079153555947 24.094359101720258 52.73356108414592 0 0 0
1704 64 1 4.471763682773586 24.118593678515573 54.15330018377057 0 0 0
1051 1 1 7.363787022061773 3.8797504741193074 50.624036483406634 0 0 0
951 10 1 7.607618285574507 17.08393876565993 57.50285618207134 0 0 0
6651 51 1 3.1652626430593522 5.28490537565293 56.55921794541086 0 0 0
4013 52 1 9.653497389699835 24.844992839714983 48.72262363781418 0 0 1
656 3 1 8.134438529059125 12.667887718587115 56.54988178322671 0 0 0
1597 14 1 4.34727091391158 20.347103375124526 53.72410983183413 1 0 1
877 8 1 4.7839655463113955 14.9649600076285 47.754326924687085 1 0 1
3033 23 1 15.58212972463786 8.81803059786014 49.82330288909435 0 0 1
1182 12 1 13.276930317513914 19.957493175261337 59.24705516353164 0 0 0
306 5 1 7.048554676257308 8.568993735787098 56.36627717658101 0 0 0
384 5 1 5.725860194601208 6.684179034215679 53.593678918643064 0 0 0
3110 25 1 8.194250233736724 12.21985839484319 46.91759762187251 0 0 1
3 3 1 6.32026969732159 2.345179693148477 55.23949093247738 0 0 0
652 3 1 4.5666103999786225 10.8024314077613 53.700119012162766 0 0 0
6650 51 1 2.736398402524752 3.8710690878006244 56.55063349756948 0 0 0
3117 25 1 13.337062471872766 11.684815109308737 53.422020782441955 0 0 1
3926 1 1 8.250508187935102 3.614715726032631 51.75743455989842 0 0 0
1175 12 1 8.35800122473493 18.20339438589806 53.023202097479334 0 0 0
1783 1 1 12.846230199574496 6.374294259870169 57.245670544455564 0 0 0
1598 14 1 5.634547642687051 20.987389803457432 53.39354019440647 1 0 1
1167 10 1 3.0682119074028886 16.143260014716212 50.34405841677647 0 0 0
888 8 1 12.07913837264101 16.27310029729498 56.9839779539618 1 0 1
6653 51 1 3.7089093815069023 6.565386733305546 58.70236219449978 0 0 0
7836 60 1 4.324391812404686 22.712501840993035 57.89258696848313 0 0 0
889 8 1 12.51136913075356 14.985509698034079 57.70411014312824 1 0 1
3351 28 1 18.51230380482519 17.41874125395658 57.63452182884254 0 0 0
3801 34 1 18.821086746814057 26.599987056082178 58.78651933965132 0 0 0
7560 12 1 1.419355915597074 18.02827258815497 54.90070577575547 0 0 0
3085 18 1 18.434710714786167 13.837697448293971 59.26929260842563 0 0 0
7268 5 1 2.0192125410931734 13.919259503269009 54.11506945788847 0 0 0
561 16 1 14.532462595850095 25.631760932781383 59.4487852842459 0 0 0
4285 53 1 17.622504198024423 4.814356255142064 47.252779231243785 0 0 0