LAMMPS data file via write_data, version 23 Jun 2022, timestep = 11111117

9706 atoms
2 atom types
9690 bonds
3 bond types
9674 angles
3 angle types
9658 dihedrals
3 dihedral types

0 36.89775039 xlo xhi
0 26.67072 ylo yhi
29.496840366203713 207.25476403385284 zlo zhi
0 5.5926513269075375 0 xy xz yz

Masses

1 14
2 15

Pair Coeffs # lj/cut/omp

1 0.0914 3.95
2 0.1947 3.75

Bond Coeffs # harmonic/omp

1 449.5 1.53
2 449.5 1.53
3 449.5 1.53

Angle Coeffs # harmonic/omp

1 62.0967 114
2 62.0967 114
3 62.0967 114

Dihedral Coeffs # opls/omp

1 1.411 -0.271 3.145 0
2 1.411 -0.271 3.145 0
3 1.411 -0.271 3.145 0

Atoms # molecular

1 3 1 11.149081188816504 21.989130720688426 35.86494218934427 0 -1 0
2 3 1 11.931881090147927 20.817667669796116 35.88384003848361 0 -1 0
3 3 1 12.879095163717793 20.621851057841262 37.03249293927695 0 -1 0
4 3 1 13.790360464510076 19.48408819386072 36.847696769187024 0 -1 0
5 3 1 14.617608976096234 19.07397264131534 37.98911503422737 0 -1 0
6 3 1 15.342527872418826 20.179406430113662 38.82569618924885 0 -1 0
7 3 1 16.323046937016336 19.60610220194793 39.877546079723494 0 -1 0
8 3 1 16.39758083366171 20.584080442589368 41.00903719759377 0 -1 0
1288 11 1 18.77873404616299 8.300259407224852 43.374399867954246 0 0 0
9395 12 1 1.2719987709531735 22.490901148967133 37.176220820555514 1 0 0
7643 51 1 0.7361678318997115 0.8373075961763286 29.786528424678124 1 0 1
599 5 1 6.21470787543328 3.8174330806673153 31.648662343003764 0 0 1
7805 46 1 1.9972404904035588 3.6808139227534524 38.043779398526276 1 0 0
9404 12 1 9.253993742122905 17.012614460357376 43.04872444765386 0 0 0
9238 62 1 1.1735384359237764 19.824733292787975 30.850523013136684 1 0 1
304 59 1 11.690367237577137 0.6320685076744589 31.575774661452034 0 0 0
5767 19 1 1.3200613390565488 6.201849007396969 45.38102572843937 1 0 0
1669 11 1 18.125854492663 13.079014979326221 42.842682274781424 0 0 0
7810 46 1 6.6680754254088 0.09747130744771432 40.609908680523205 0 0 0
7488 64 1 1.5342533639618021 25.851665886239083 38.39079820851272 1 -1 0
222 3 1 8.903259721404808 23.4783624574566 32.97029255260428 0 -1 0
223 3 1 9.422054937361457 23.181903236044707 34.38284248364637 0 -1 0
224 3 1 10.681734435487673 22.225337078927552 34.47105912969532 0 -1 0
1658 56 1 18.672850252477613 13.12027132138604 37.32589262603035 0 0 0
305 59 1 12.61366283824379 26.435317736067894 32.47557052591317 0 -1 0
306 59 1 13.588822575940501 0.7369093778272962 33.15471878896531 0 0 0
307 59 1 14.837795906832003 0.014348388998396995 33.522745760459294 0 0 0
308 59 1 15.887160514954555 0.6487413533275215 34.485829536733426 0 0 0
309 59 1 16.795546433808266 26.372885427521123 35.33465297290251 0 -1 0
3097 17 1 15.130974824713357 1.7487959162513387 29.646950055801124 0 0 0
9021 61 1 0.8564491024020344 18.135213716207204 37.127880566548676 1 0 0
8347 54 1 0.5091473135907585 9.80059404841709 29.806575633615974 1 0 0
1057 60 1 17.547360595238644 9.373562996455721 36.24353245420148 0 0 0
7806 46 1 3.229869612537401 2.871761612788213 37.771125691503954 1 0 0
1656 56 1 16.783828146340113 12.882893800669667 35.768557525977954 0 0 0
221 3 1 7.801195886244434 24.583483003831233 33.057519037976384 0 -1 0
8129 53 1 3.5741033769124093 6.9945799244242 38.947415148229965 0 0 0
8580 30 1 11.364292447129802 6.968277756303056 43.53969061761173 0 0 0
8137 53 1 10.917035132682557 2.496146264784745 43.981616917695305 0 0 0
8353 54 1 4.885659485612768 9.715317286901406 35.57960683401736 0 0 0
1657 56 1 17.593029865510953 13.882832246538028 36.57636666608479 0 0 0
383 4 1 12.632485866331013 25.027423053070645 36.98387908443966 0 -1 0
384 4 1 13.85943706236709 24.087149551889866 36.77386222717329 0 -1 0
385 4 1 14.613044919925729 23.635344125557964 38.146638116031795 0 -1 0
386 4 1 15.603830933642957 24.662796365252763 38.55180344636081 0 -1 0
387 4 1 16.17535095626016 24.12731780352456 39.844702072089504 0 -1 0
388 4 1 17.064025836867305 25.091502692059855 40.59537976095133 0 -1 0
389 4 1 17.5989038716619 24.65723691838709 41.94464027190398 0 -1 0
3547 21 1 15.484302770310556 6.846624510587167 29.83831857473721 0 0 0
8583 30 1 12.12882704991821 8.450184685121561 47.00473521570953 0 0 0
2648 15 1 16.25572189605016 24.883389735148064 30.569661487202193 0 -1 1
2048 13 1 18.488887432806525 17.279758203384834 42.74323341291544 0 0 0
7716 52 1 1.5828482159996369 1.8904373786260826 30.513026283758627 1 0 0
5548 40 1 2.5340005264230134 4.2818092588930945 41.8816776587805 1 0 0
4938 35 1 1.2884781372709546 23.877706348631847 45.59047451149091 1 -1 0
1579 45 1 13.840208597383976 13.795469070478209 33.16283982467137 0 0 1
9316 3 1 5.9803981623939855 17.98414687666211 35.49502458495234 0 0 0
7053 47 1 1.7377226176820986 19.353503750447196 46.87551766024873 1 0 0
7808 46 1 5.040284624136545 1.5782187999663382 39.12662347551618 0 0 0
602 4 1 8.86342912811963 1.4355190039971146 33.205178186087124 0 0 0
603 4 1 9.119934836687175 0.9287287093086259 34.634110484374865 0 0 0
604 4 1 10.189285386210187 26.559061022037678 34.625274712971986 0 -1 0
605 4 1 10.894114629521837 26.34994452866463 35.97553479697859 0 -1 0
606 4 1 12.104170901053568 25.50117383253315 35.651822556181884 0 -1 0
607 6 1 13.163087795318853 4.311828051642095 31.71033105570708 0 0 0
608 6 1 14.285631970728355 5.04397173001858 32.37215079468742 0 0 0
609 6 1 15.014823153582741 4.126274740868352 33.333030034023196 0 0 0
610 6 1 16.111448716512857 4.919254288539785 34.04612292878398 0 0 0
611 6 1 16.86656219776526 4.048089876273568 35.11411741481246 0 0 0
1575 45 1 10.335556318683215 14.03209351643416 29.659512316831645 0 0 1
1047 7 1 4.716847322202612 7.786622487592428 29.783743560373356 0 0 1
8038 53 1 0.8429327868674822 5.898355412920988 30.560661062501293 0 0 0
8349 54 1 2.203097876589781 10.225992294353807 31.798452979147317 0 0 0
6378 36 1 3.798315474934081 12.7388453317428 43.132231617435146 1 0 0
7803 46 1 1.2645820642389733 3.610722801074719 35.728111388465834 1 0 0
9408 12 1 11.777246911823335 16.7357004978405 46.24739691426177 0 0 0
390 4 1 18.289259331600853 25.874590075307516 42.46477631882003 0 -1 0
2203 14 1 7.276231677237287 20.240335505614564 33.042195777755204 0 0 1
8787 58 1 0.8328258299473954 14.329134195423885 29.767554430390057 1 0 1
600 4 1 7.312369043609275 2.7409628474605796 31.779805403588625 0 0 0
3098 17 1 16.18934047291575 2.6019873167525005 30.388516893546825 0 0 0
1495 10 1 5.427777412951115 13.209694094051851 30.59091986951626 0 0 1
831 52 1 11.087917935782952 4.012655736789133 35.60216594025285 0 0 0
832 52 1 12.427454652086757 3.291326268059967 35.686071768884005 0 0 0
833 52 1 12.904724123104268 2.9262838821026955 37.11705173588394 0 0 0
834 52 1 13.979136022806914 1.8757667434176821 37.09614481559669 0 0 0
835 52 1 14.751919396733117 1.6676415551077326 38.45381500416611 0 0 0
836 52 1 15.504892203600573 2.8433902876624653 39.00544162604023 0 0 0
837 52 1 16.355573555963815 2.4404733824557656 40.229374948081656 0 0 0
838 52 1 17.337999297984528 3.4074170247056905 40.78159739963761 0 0 0
2199 14 1 4.350270420191397 20.874562594448623 29.64321698215026 1 0 1
9329 3 1 15.979145747191374 15.507419894374951 45.76994896283926 0 0 0
2047 13 1 17.47083134847033 16.266141368398 42.214301708731966 0 0 0
8125 53 1 0.6931793742161771 8.129633878163514 35.47813454859234 1 0 0
8055 53 1 15.086255396202386 1.2356256211955952 43.308113177517114 0 0 0
5551 40 1 5.213483868892242 3.113426381829095 44.45000294181319 0 0 0
1499 11 1 8.915300534567914 10.339904606132539 32.9260734351317 0 0 0
2202 14 1 6.93355915124196 20.59265267046958 31.488627975830063 0 0 1
840 52 1 18.390575876528732 4.188825021312307 42.852487602301494 0 0 0
1049 52 1 5.975491969343159 8.057320255978526 31.914082124957815 0 0 0
1050 52 1 7.248457009624347 7.218833695891231 31.647581102581317 0 0 0
1051 52 1 8.005839762194725 6.987925347944611 32.89459352530139 0 0 0
1052 52 1 9.104809859040705 6.007871521991064 32.7857341283967 0 0 0
1053 52 1 9.463403969846176 5.362348656498375 34.13767039026438 0 0 0
1054 52 1 10.528113238433733 4.318189228128353 34.25332414556064 0 0 0
1055 60 1 15.788021414532732 9.217715878545887 34.43999757994219 0 0 0
1056 60 1 16.83718607095312 8.484727924467343 35.30242942738512 0 0 0
7804 46 1 1.3922580636827606 4.465659029498236 36.96040728882738 1 0 0
828 6 1 10.329925800370566 5.363236418682479 29.524054834120832 0 0 0
829 6 1 11.13930609114345 4.353370996248639 30.306043222120216 0 0 0
6376 36 1 1.7308834519696075 13.638999173497815 41.84448080403355 1 0 0
6827 20 1 4.0985992717497375 17.00901251324687 43.08560388517863 1 0 0
382 59 1 10.978154777409918 26.555724481937517 30.461284762779187 0 -1 0
9632 64 1 3.9876946869996828 23.360095069083503 34.02373401156864 0 0 0
3929 25 1 16.196007142382868 11.754731401990945 30.549033727603856 0 0 0
5993 25 1 4.269789227874356 7.840765224350454 43.03674722807538 1 0 0
7812 46 1 8.77842113059948 25.851632231351843 41.884015746231654 0 -1 0
8568 30 1 0.8084097628801192 12.641754222054034 35.94749302881828 1 0 0
7717 52 1 2.4736058360248165 1.2308940657790137 31.651730052525835 1 0 0
1275 60 1 11.994414818513475 9.470749499393065 31.029874662459893 0 0 0
1276 60 1 12.824468050186896 8.63831828084772 32.057501159468416 0 0 0
1277 60 1 13.872806573415385 9.369584645296763 32.858550256279926 0 0 0
1278 60 1 14.772890994510323 8.442061651598953 33.70778350774929 0 0 0
1279 11 1 12.15655372329418 7.617251726929968 35.648677666393695 0 0 0
1280 11 1 12.985949918581738 7.308751000888044 36.90614722505078 0 0 0
1281 11 1 14.116530858742957 6.407293876715073 36.53614426098288 0 0 0
1282 11 1 14.988112817789219 5.7529323387422835 37.64966226294309 0 0 0
1283 11 1 15.462622756470845 6.979557532375463 38.31763001022609 0 0 0
1284 11 1 16.543313961575414 6.663702159013954 39.36497836070356 0 0 0
1285 11 1 16.96002613194744 7.914375631723979 40.15296738467127 0 0 0
8788 58 1 1.6421997309367777 15.365088326443706 30.548916868566344 1 0 1
9 3 1 17.65495505606107 20.503921325257785 41.87315854061422 0 -1 0
8582 30 1 12.498412918466087 7.878522003811933 45.6715826069735 0 0 0
3325 21 1 17.504125072455984 6.708609356028138 31.286338938502272 0 0 0
8058 53 1 15.912182884603514 2.6970197395310263 46.7914454549966 0 0 0
381 59 1 9.96267584055123 0.9201290206531277 29.850827288200556 0 0 0
1580 45 1 14.85122737413217 12.934411328053931 34.00296675920368 0 0 1
9239 62 1 2.0569707249189597 19.22423482134073 31.95028547019258 1 0 1
219 3 1 6.202580102696948 25.944626133257152 31.870183401138334 0 -1 0
9407 12 1 11.292617335852524 16.789773739376265 44.87942789263643 0 0 0
8808 59 1 16.07595841796428 11.896198971629788 46.61206411913001 0 0 0
6380 36 1 5.529704124991951 11.396350400429679 44.24209164689296 0 0 0
4536 32 1 16.569321155790938 20.59612540862753 30.239252628235885 0 0 0
1500 11 1 9.560675404961353 9.91462141033728 34.308413378711386 0 0 0
1501 11 1 10.701703120644286 9.035578800762183 34.44851750422788 0 0 0
1502 11 1 11.112658053479361 8.695795729370076 35.88620051829738 0 0 0
839 52 1 17.85033975793555 2.9100104377293667 42.08308801415768 0 0 0
9023 61 1 2.6914748071755517 16.64842950463767 38.03788531051589 1 0 0
7490 64 1 3.448601550907645 24.53468679975957 39.41391899720372 0 -1 0
2200 14 1 5.164313511273532 21.9702702667063 30.3419969633653 0 0 1
1668 11 1 17.83624094066192 11.962603118545095 41.82349147993186 0 0 0
613 6 1 18.59718437096468 4.1088361825452395 37.09203412061804 0 0 0
7807 46 1 3.9572004290116403 2.6461446258479397 39.11546902473306 0 0 0
8793 59 1 4.576120275817536 14.239834101536744 35.76635091336718 1 0 0
9314 3 1 4.01444784779244 18.956728292657818 34.162222929701 1 0 0
9400 12 1 5.433915172873852 19.319249553942708 40.60782257052881 1 0 0
8802 59 1 12.948941762337611 8.297539869225893 40.733305271646536 0 0 0
9406 12 1 10.666614849350838 15.494137256652909 44.48027098249686 0 0 0
9639 64 1 9.926655413426278 19.758726292361594 39.17945006203409 0 0 0
6375 36 1 0.6358114241194412 14.679387985024647 41.901216549686275 1 0 0
598 5 1 5.615012305354917 4.286360171101904 30.365032735453145 0 0 1
9397 12 1 3.1071316088505836 20.803111679557727 37.96639690422603 1 0 0
2040 50 1 11.882655722140344 18.042751197633695 31.334505228728737 0 0 0
9394 12 1 0.5893718345345347 21.50778440335645 36.22579681467421 1 0 0
1661 11 1 12.123896678545941 12.408829990070615 35.876974204377944 0 0 0
1662 11 1 12.692735872340299 11.805283612610925 37.20523217001188 0 0 0
1663 11 1 13.842590214919156 10.866339865809389 36.93981093264731 0 0 0
1664 11 1 14.738236966993403 10.562228870063738 38.06927806148884 0 0 0
1665 11 1 15.30413793589395 11.602813903243202 38.958975219490085 0 0 0
1666 11 1 16.40301138446 11.079249456322847 39.74851193399345 0 0 0
3928 25 1 15.260949196178148 11.017678978754775 29.714627409882592 0 0 0
9555 63 1 0.17232376072562997 23.05032428522552 29.777385958635758 1 0 1
1496 11 1 6.1280950963474945 12.807674307087556 31.8915110595806 0 0 0
2424 55 1 11.9808268485085 22.32978190817207 31.206567492798698 0 0 0
6377 36 1 2.5071370404211644 13.653784063162052 43.185560778841705 1 0 0
8804 59 1 13.883950978552168 9.582678770134375 42.81186132696648 0 0 0
1880 11 1 7.531103555109185 15.604172599543777 33.16192744139411 0 0 0
3324 21 1 16.298635013638044 7.535657089801829 30.894846007748573 0 0 0
1576 45 1 11.148039548575456 13.13064876529432 30.592453705720036 0 0 1
9237 62 1 0.6720171714561665 18.793189720390096 29.822179545703005 1 0 1
6379 36 1 4.514767479927004 12.46040636814965 44.39355529170242 1 0 0
8570 30 1 1.618900596007077 13.022583248972426 38.219105764262146 1 0 0
7723 52 1 6.316764076089609 26.24256940654713 36.8162623061575 0 -1 0
1881 11 1 8.931039324317117 15.070028599744342 33.238991072781054 0 0 0
1882 11 1 8.978207299622419 14.008870907395057 34.38111730964178 0 0 0
1883 11 1 10.395212958918771 13.61247242356031 34.663927021282035 0 0 0
1884 11 1 10.662879619181869 12.92761213798168 36.00528786626362 0 0 0
1964 50 1 14.685400753796618 17.433178767306458 33.813567453829734 0 0 0
1965 50 1 15.924399028797946 18.080334621328277 34.31602467902975 0 0 0
1966 50 1 16.495475819089247 17.365613243957604 35.516108797748984 0 0 0
4939 35 1 2.0171809708820816 23.722982492988084 46.95073201060539 1 -1 0
6153 22 1 2.2320795591335822 10.829112876695593 46.710036726864175 1 0 0
8789 58 1 2.4332453096155535 14.888291172430812 31.811740084939927 1 0 1
1877 62 1 5.213250606269419 17.475884739305595 30.449057785914363 0 0 1
5469 9 1 3.1764987963335964 0.6459919183736882 46.80218864569885 1 0 0
2201 14 1 5.771317691672147 21.549808552838464 31.647541033490445 0 0 1
9399 12 1 4.7621183462066154 19.47626668984175 39.198398394476655 1 0 0
8367 54 1 16.330448488869887 6.441940252709496 46.36874923829161 0 0 0
8807 59 1 16.321037573438034 10.847880216506658 45.56410300931643 0 0 0
218 3 1 5.64639075209927 26.651522055278548 30.641289147556098 0 -1 0
5998 25 1 8.757891072713171 5.078852466225325 46.706621718819335 0 0 0
9636 64 1 7.380395001535354 21.03247654184734 36.64458956415822 0 0 0
7052 47 1 1.3670688125829238 19.9022839664815 45.501556268834456 1 0 0
2041 50 1 13.114953937325819 17.278347756649488 31.774667913765043 0 0 0
2042 50 1 14.05356067535658 18.111922440430497 32.69053088848149 0 0 0
2043 13 1 14.352745046456077 15.248317704373802 38.37260746649015 0 0 0
2044 13 1 15.757158748921283 15.685944517432542 38.8806036688691 0 0 0
2045 13 1 16.216733526142466 15.431594812937742 40.282480384231874 0 0 0
2046 13 1 17.37125349199085 16.3009778543789 40.67439914630358 0 0 0
220 3 1 7.444401304637805 25.023372223222193 31.703685637556628 0 -1 0
4940 35 1 2.995716726376503 22.617447557286365 47.05706092123413 1 -1 0
5163 38 1 4.266058216424132 25.617665021312288 43.189870079035785 0 -1 0
1968 50 1 18.450297268712138 17.652720417928865 37.14692672459535 0 0 0
8795 59 1 6.537398638084031 13.11015178374641 36.960590531378294 1 0 0
2038 50 1 10.11650308901125 18.26389276515175 29.919546151862512 0 0 0
8801 59 1 12.35156501415999 9.600638449237124 40.26201096770167 0 0 0
8794 59 1 5.71843157328953 13.213553525502455 35.66969297008413 1 0 0
7809 46 1 5.722217569792521 1.2969040134948175 40.410703876900264 0 0 0
9631 64 1 2.628463159638595 23.85860663268083 34.183610613238564 1 0 0
7280 50 1 7.7719127879374525 19.18082057450425 45.463603230628124 0 0 0
2425 55 1 12.901302588237762 21.548371398281 32.01376287300667 0 0 0
7273 50 1 0.697317550494486 23.20373879163534 41.888790128845834 1 0 0
2116 13 1 9.04014988252828 19.084686884368537 34.574685711994505 0 0 0
2117 13 1 10.3177207655148 18.33392425990046 34.41134760423228 0 0 0
2118 13 1 10.58791624097077 17.48877894652466 35.653324181974234 0 0 0
2119 13 1 11.983450238964531 16.876864253063307 35.62823735764484 0 0 0
2120 13 1 12.28858824452813 16.03431247947633 36.870865928764495 0 0 0
2121 13 1 13.778113171755425 15.910908453853546 37.06577085199648 0 0 0
2204 55 1 15.699462112246342 22.397097193241123 34.4771352204239 0 0 0
2205 55 1 16.435164760601456 21.59091556079073 35.53414732645122 0 0 0
7486 64 1 0.45014869936263174 25.766648936410895 36.164752856180336 1 -1 0
217 2 1 4.778046029150682 25.73795315650211 29.729839797980745 0 -1 1
5161 38 1 2.500240356249904 0.271612999838721 41.81797039981943 1 0 0
7054 47 1 3.1374757403716744 18.770194487296468 47.0268142336639 1 0 0
7281 50 1 8.198559486636874 18.937145196890462 46.926900321331466 0 0 0
5162 38 1 2.885723891440171 26.328670171985376 43.13457652091512 1 -1 0
9628 64 1 0.8543102284607077 24.033510960940593 30.727638020227754 1 0 0
5555 40 1 9.001471009907506 1.016157671923748 46.721014375847005 0 0 0
8041 53 1 3.5708808810645998 6.562286931862646 33.25976662788209 0 0 0
5546 40 1 0.6125224137588203 5.756382892774717 40.7901865622203 1 0 0
9029 61 1 7.967616423726793 12.598208465884749 41.6253666846403 0 0 0
5996 25 1 6.881468026237594 6.330551102327622 45.41693703807775 0 0 0
7492 64 1 5.484237372992554 23.699288040238436 40.5949594791538 0 -1 0
9630 64 1 2.198353580236313 24.41042092884395 32.86823578908022 1 0 0
2426 55 1 13.813865454220345 22.327899934125647 32.865733632162566 0 0 0
2427 55 1 14.75546270755873 21.49879186933561 33.690914338696444 0 0 0
7817 46 1 12.453595346122675 25.664166748411468 46.54926412346459 0 -1 0
1274 60 1 10.987449174591381 8.66453831895492 30.28786284770045 0 0 0
8126 53 1 1.3199164107715333 9.123019159736485 36.4490879092611 1 0 0
6154 22 1 2.989572833907114 9.43372718389031 46.74930686800816 1 0 0
8577 30 1 8.139988688660527 8.059531965465306 41.545083801147534 0 0 0
8806 59 1 15.128885001546958 10.86649904383889 44.63688264754996 0 0 0
9324 3 1 12.694244425981152 12.780956670806448 40.92963012262512 0 0 0
1577 45 1 12.02874408127916 14.008523044019455 31.496376735319604 0 0 1
1879 11 1 7.078929972716096 16.47689342994004 31.980850749335566 0 0 0
8356 54 1 7.7986002435537465 7.541865146607172 36.96427350855771 0 0 0
1581 45 1 15.816017615050864 13.753077768804477 34.880560158535516 0 0 1
8575 30 1 6.273845154268538 9.276829374391406 40.27832254140982 1 0 0
9398 12 1 3.37811413219253 20.157117209171776 39.2625455362586 1 0 0
8803 59 1 14.161349753257944 8.558809210003808 41.61608907367304 0 0 0
5467 9 1 1.350307168209513 1.7968892252180844 45.38037750136094 1 0 0
9629 64 1 1.6435427813167522 23.40765589287164 31.895606467112778 1 0 0
8127 53 1 2.0560614471675485 8.54553830284507 37.66818922075623 1 0 0
9034 61 1 12.144592185218182 12.28944190462145 45.62762595226917 0 0 0
6604 61 1 1.0085505896228253 15.421482715665542 45.65696795222965 1 0 0
6826 20 1 2.68708138247049 17.649513067476935 43.060066202514165 1 0 0
5994 25 1 4.948768818547423 7.493516859118719 44.352031180138226 1 0 0
9315 3 1 4.644093259152222 18.66191103680529 35.50819256337558 1 0 0
9027 61 1 6.215942948092837 13.931018745843895 40.4777587847871 0 0 0
7487 64 1 1.102017851690246 26.670231509353837 37.17792584959236 1 -1 0
8359 54 1 10.241283866274658 5.708978572780186 39.41287203384375 0 0 0
1578 45 1 13.009863870769559 12.991853174398264 32.195092075219264 0 0 1
6606 61 1 3.086887796049605 14.456193030450324 46.727124781741665 1 0 0
8056 53 1 14.953059603556222 1.475115686806521 44.78970388137101 0 0 0
8805 59 1 15.246853270149087 9.87778179556984 43.43503084565148 0 0 0
830 6 1 12.137364913180221 5.1794471004193525 31.133395399846886 0 0 0
1967 50 1 17.66275322329763 18.20619117684436 36.059685273117495 0 0 0
1667 11 1 16.92252588946212 12.202691801197584 40.668649102503196 0 0 0
8040 53 1 2.207307100626313 6.579448675223205 32.58441610402639 0 0 0
8138 53 1 11.428788345673343 3.6892223349975612 44.64865784788327 0 0 0
7736 52 1 16.444799270161212 25.319422176392983 46.63382359880815 0 -1 0
8134 53 1 8.246896144703966 3.6099364258750946 41.40456278199823 0 0 0
9022 61 1 1.3872902772178022 17.355724189321943 38.31740482435946 1 0 0
9647 64 1 15.28306292013519 19.23911693113499 45.84348144447091 0 0 0
9024 61 1 3.3495040380216623 16.19621807322253 39.33774718834954 0 0 0
9323 3 1 12.052856479632407 14.079876419330764 40.62043763086849 0 0 0
9028 61 1 7.2856832665315325 13.950842285575806 41.559310223721056 0 0 0
9032 61 1 10.980316886042166 11.142310897606512 43.59301602658161 0 0 0
5549 40 1 3.200155722815561 4.177824455426845 43.2699328809463 1 0 0
9648 64 1 15.669191350749829 20.544363966272567 46.582196150508565 0 0 0
5160 38 1 1.0237755014642325 0.7040431824146968 41.95433967247845 1 0 0
7277 50 1 4.437864867224942 20.733655531046995 44.2157468990566 0 0 0
6825 20 1 2.137161305476289 18.178530702304556 41.716995446620516 1 0 0
7721 52 1 4.283512586426067 0.32850642729887036 35.60302756485033 0 0 0
5990 25 1 1.1143103657199702 9.59123294889197 41.92505891563239 1 0 0
8572 30 1 3.4344937022986315 11.668311498236376 39.427297983670286 1 0 0
9313 3 1 2.9128261168196485 19.95991466173265 34.30482108115478 1 0 0
7735 52 1 15.839250951296073 24.1253780086633 45.999310525867664 0 -1 0
8358 54 1 9.729623210979195 6.553118940548785 38.32207571465503 0 0 0
5995 25 1 6.068207150470139 6.517889812211269 44.19638114809019 0 0 0
9638 64 1 9.153477179683845 19.65687795297869 37.86197096743837 0 0 0
9405 12 1 10.120553626297285 15.770089639386955 43.11063480877689 0 0 0
8039 53 1 2.109409878388571 5.5797518484820605 31.36302127622911 0 0 0
8569 30 1 1.3636662426730588 13.74368402319122 36.8675179958919 1 0 0
5553 40 1 7.286645584124062 2.0747780085729577 45.37656052855939 0 0 0
6828 20 1 4.5699396310928195 16.797617440115758 44.546662163016606 0 0 0
9396 12 1 2.0236610400461483 21.78534569103247 38.236268494296645 1 0 0
310 59 1 17.438994720600714 0.5340562315304025 36.45060652212765 0 0 0
8366 54 1 15.889517807299145 6.771206021866977 44.94330951196528 0 0 0
4376 29 1 16.7668912512057 15.318511021180234 31.423613572822827 0 0 0
8364 54 1 15.244141018034817 5.510747628630665 42.83368587966833 0 0 0
6824 20 1 0.769433267336776 18.858829554050036 41.85079626335975 1 0 0
9634 64 1 5.8156078647827885 22.359654496163493 35.57970119000095 0 0 0
7813 46 1 9.531534870427175 25.79593532582232 43.18407238734846 0 -1 0
8363 54 1 14.084419519525898 4.611912060884204 42.35932234435755 0 0 0
8131 53 1 5.256108312428992 5.749552278877899 40.22985282501553 0 0 0
8132 53 1 6.399676456219029 4.834129529198533 40.16337428185762 0 0 0
4537 32 1 17.495797025763245 19.79094981075459 31.183423321343177 0 0 0
8348 54 1 1.5062549419999278 10.710386771305343 30.52616427014031 0 0 0
2039 50 1 10.694897153206645 17.173238421251266 30.850092189312438 0 0 0
9312 3 1 2.4705049788512383 20.31338560194077 32.942687521075904 1 0 0
8354 54 1 6.038516800580513 8.67631792593284 35.528814266179666 0 0 0
5167 38 1 7.935166513489488 23.70538030593153 45.696627796504245 0 -1 0
9327 3 1 14.829425736852597 14.43481119340705 43.67644057074224 0 0 0
8133 53 1 7.261724369690214 4.749856300873386 41.420943781633866 0 0 0
8355 54 1 6.533717266051699 8.43830939616249 37.00391886155985 0 0 0
7276 50 1 3.7971623883291015 21.187287079932883 42.90996141587267 0 0 0
6832 20 1 8.41958675474919 14.355055833146118 46.79434042723713 0 0 0
8054 53 1 13.806508099693861 0.9087603328682318 42.55991528455107 0 0 0
5165 38 1 5.848179948583748 24.16688604820123 44.60937275239813 0 -1 0
5550 40 1 4.238723441368334 3.0899073543412046 43.26649175140362 0 0 0
7278 50 1 5.876358222360895 20.16298928157913 44.10165982471105 0 0 0
5768 19 1 1.877042903835361 5.805132512274801 46.797051132239716 1 0 0
9031 61 1 9.722560162473107 11.29596670624692 42.790404247461154 0 0 0
9322 3 1 10.873094038945023 13.99466884837523 39.54999042380217 0 0 0
7718 52 1 3.030602497435891 2.285145875204941 32.610819043515036 1 0 0
6381 36 1 6.22667926297486 11.052898886376468 45.500426948532606 0 0 0
612 6 1 17.77726693920643 4.833523836744362 36.050039993510055 0 0 0
3706 25 1 17.016534074883484 10.758174026303358 31.417238646939907 0 0 0
8571 30 1 2.7682782987207917 12.084949533286926 38.16441097167437 1 0 0
8139 53 1 12.218137178372478 3.269487264092478 45.93432476412105 0 0 0
9403 12 1 8.573711678029431 17.29923697588152 41.723939120222724 0 0 0
8574 30 1 5.272581134546635 10.379864350957696 40.38587091448686 1 0 0
9402 12 1 7.424299450890063 18.23942711383932 41.74696606955098 0 0 0
8130 53 1 4.732646737146189 6.095143656123643 38.8093151390317 0 0 0
6831 20 1 7.532980067393614 14.481405366480763 45.544926632750794 0 0 0
9640 64 1 10.949655320181197 18.683277357591923 39.21464818846937 0 0 0
4759 32 1 15.321797907363038 19.888380044479398 29.756373937883616 0 0 0
5554 40 1 7.971062224314933 0.7727221455726542 45.64704253331454 0 0 0
8791 58 1 2.8722900521938692 15.4647932542517 34.21698730744667 1 0 1
2049 13 1 18.37499482304417 17.65522610722055 44.24054900950845 0 0 0
9321 3 1 9.91596556278316 15.192949845622083 39.37277631018216 0 0 0
5547 40 1 1.3759851806597647 5.303683581621174 42.0100494836505 1 0 0
4377 29 1 17.917089598853455 15.910387526950057 32.19175185127774 0 0 0
9646 64 1 14.886874674605004 19.645161846279727 44.41933880305043 0 0 0
9326 3 1 13.563951322215114 13.961215909833887 43.061097759779855 0 0 0
8797 59 1 8.239145077076337 11.72038957283083 38.202407715973244 0 0 0
2115 13 1 8.664043402058672 19.613421710156775 33.134859384857485 0 0 0
3099 17 1 16.931572212161047 1.8371017964817469 31.48168918923882 0 0 0
9645 64 1 14.336036053145438 18.394292528926588 43.8353706126968 0 0 0
9317 3 1 6.200485932971039 17.291522333489475 36.81219333399754 0 0 0
7491 64 1 4.839029875071609 24.029252336850554 39.2748000848293 0 -1 0
8361 54 1 12.297742309102741 4.740822237321458 40.671314160858785 0 0 0
8798 59 1 9.162131246078228 10.49953069878158 38.24316413715666 0 0 0
7274 50 1 1.972265210759437 22.29653144392464 41.637955524023845 1 0 0
1287 11 1 17.907498689217373 8.742910643807788 42.27749883568647 0 0 0
9320 3 1 9.080096056617485 15.131269941322852 38.198434460438904 0 0 0
7496 64 1 9.171050009306017 21.383310115500468 43.10814813897076 0 -1 0
7497 64 1 10.394169730699423 20.483219518203768 42.815658832488694 0 -1 0
7498 64 1 11.066406516582676 20.13909177781566 44.038915655861985 0 -1 0
7495 64 1 8.633981171251818 21.598676721859068 41.716095621064646 0 -1 0
7494 64 1 7.2892887403117035 22.30514202415288 41.79848906049144 0 -1 0
9328 3 1 14.687178650422128 15.070097312081725 45.03525438594484 0 0 0
7279 50 1 6.3505798624528795 19.734353082638762 45.43852534771639 0 0 0
6829 20 1 5.802308487417045 15.88233978691555 44.383830510530935 0 0 0
8796 59 1 7.397225048664176 11.832708628181297 36.946888273865376 0 0 0
5168 38 1 8.69859509087212 23.568684214127853 46.99822462609883 0 -1 0
1498 11 1 7.758208404723575 11.325740041486654 33.126699052258985 0 0 0
7725 52 1 8.31731973359799 25.07594009307156 37.827479355067226 0 -1 0
7726 52 1 9.279714788472585 23.95933188810931 37.833859418527545 0 -1 0
7727 52 1 10.04151157814927 24.06984374197252 39.14361030295087 0 -1 0
7728 52 1 11.089958551006362 23.096106949125165 39.204023289393234 0 -1 0
7729 52 1 11.852576695536698 23.049223106098083 40.522383316132576 0 -1 0
7730 52 1 12.932573839229832 22.074597840990386 40.599755638722606 0 -1 0
7731 52 1 13.496667353654868 22.107383765837668 41.96564064634373 0 -1 0
7732 52 1 14.414667864368388 23.19320302810515 42.43835160941463 0 -1 0
7733 52 1 14.929467390926897 23.148488640811145 43.87735851956409 0 -1 0
8360 54 1 11.711530504775872 5.557340841595801 39.52720045903474 0 0 0
7500 64 1 12.106276047929867 21.430064201269396 45.987397286287056 0 -1 0
7720 52 1 3.422608678085146 0.6563125274477241 34.447678052305555 0 0 0
8362 54 1 13.78491435749954 4.8520033226907895 40.902637810509816 0 0 0
9644 64 1 13.83873201097192 18.488988620139548 42.40664552489121 0 0 0
7724 52 1 7.500188877782511 25.239576441865175 36.593602870934546 0 -1 0
9637 64 1 8.079489110550766 20.700854313443543 37.89198291647723 0 0 0
8365 54 1 15.290870288321447 5.570373433136631 44.296561956040605 0 0 0
9641 64 1 11.731324683309044 18.53122173790759 40.448989087068064 0 0 0
8799 59 1 10.112905055197503 10.578990912993882 39.42293154419646 0 0 0
7275 50 1 2.6994213096940816 22.14801223240319 43.01691008157612 1 0 0
6830 20 1 6.496132994518559 15.55407402872507 45.73208818593554 0 0 0
8043 53 1 5.236227571437009 5.382944174084005 34.884201618947756 0 0 0
7815 46 1 11.47435733079455 24.601934339315704 44.43847292529236 0 -1 0
7816 46 1 11.41774773105764 25.77823815596546 45.40373959997943 0 -1 0
10 3 1 17.594916593338453 21.361661364265284 43.166667967401864 0 -1 0
8350 54 1 2.8153238856575005 11.332665907598852 32.61463221482208 0 0 0
9643 64 1 13.539081547815371 17.260586964643007 41.599421171929066 0 0 0
1286 11 1 17.72995838449127 7.547511934914338 41.38692179563441 0 0 0
8576 30 1 7.129341659163851 9.171367454862295 41.561859242601955 0 0 0
4375 29 1 16.310729649055617 16.085820970653966 30.224136546394565 0 0 0
2647 15 1 14.940092064843494 24.354482346459314 30.10638380543982 0 -1 1
8044 53 1 5.509403028415316 3.9911859346777683 35.495444682006024 0 0 0
8792 59 1 4.06184959297786 14.51898468429937 34.32830883641516 1 0 0
9319 3 1 8.009700070639814 16.201283796564585 38.18692335023631 0 0 0