LAMMPS data file via write_data, version 29 Oct 2020, timestep = 32000000

10752 atoms
2 atom types
10752 bonds
3 bond types
10752 angles
3 angle types
10752 dihedrals
3 dihedral types

-1.4019591925125496e-01 3.1008115919238300e+01 xlo xhi
-1.2113307625790526e-01 2.6791853076229280e+01 ylo yhi
 3.6544426496582830e+01 2.4645493350273091e+02 zlo zhi

Masses

1 14
2 15

Pair Coeffs # lj/cut/omp

1 0.0914 3.95
2 0.1947 3.75

Bond Coeffs # harmonic/omp

1 449.5 1.53
2 449.5 1.53
3 449.5 1.53

Angle Coeffs # harmonic/omp

1 62.0967 114
2 62.0967 114
3 62.0967 114

Dihedral Coeffs # opls/omp

1 1.411 -0.271 3.145 0
2 1.411 -0.271 3.145 0
3 1.411 -0.271 3.145 0

Atoms # molecular

1             1             1       30.0644       2.95521       246.552
2            1            1      30.4875      4.09663      37.5303
3            1            1     0.619216      3.95583      38.2415
4            1            1     0.677123      4.95227      39.2787
5            1            1      30.7078      5.06425      40.2401
6            1            1      30.7456      6.20902      41.1566
7            1            1     0.552343      5.99222      42.3317
8            1            1     0.721195      7.37681      43.0115
9            1            1      30.6312      8.04234      43.5899
10            1            1      30.3511      7.22657      44.8769
11            1            1      28.9604      7.45701      45.4814
12            1            1      28.8154      6.72308      46.7896
13            1            1      29.7255      5.54118      46.8847
14            1            1      29.5781      5.05599      48.3122
15            1            1      28.1332      5.01602      48.6448
16            1            1       27.806      4.77732      50.1022
17            1            1      28.5781      3.59773      50.6754
18            1            1      28.2173      3.38174      52.1106
19            1            1       29.142      2.33021      52.6369
20            1            1      28.9549      1.94734      54.1384
21            1            1      29.9894      1.04122      54.7408
22            1            1      29.3744     0.348112      56.0439
23            1            1      30.5763    -0.138059      56.7989
24            1            1       30.086      26.0455      58.0817
25            1            1      29.0332      26.8675        58.79
26            1            1      28.2769      25.8474      59.6835
27            1            1      27.5727      26.5142      60.8601
28            1            1      28.3502     0.524697      61.7019
29            1            1       27.569     0.995579      62.9556
30            1            1      28.4943      1.94529      63.6792
31            1            1      29.6524      1.40928      64.4676
32            1            1      29.1936      0.23876      65.3004
33            1            1      30.3252      26.8148      66.1914
34            1            1      29.6888      25.9063      67.2187
35            1            1      28.5663      26.4832       68.022
36            1            1      28.6092      25.8077      69.3334
37            1            1      27.6568      26.4564      70.3158
38            1            1      27.1526       25.419      71.3046
39            1            1      25.8118       25.845      71.8803
40            1            1      25.8565     0.101464      72.8825
41            1            1      26.6712    -0.306876      74.0816
42            1            1       27.056     0.923419       74.841
43            1            1      27.9422      0.60702      76.0507
44            1            1      27.8889      1.65742      77.1544
45            1            1      28.9538      1.34934      78.1468
46            1            1      29.3016      2.47393      79.1231
47            1            1      30.3892      1.81404      80.0085
48            1            1      29.9662     0.575576      80.7843
49            1            1      30.8628     0.139273      81.8641
50            1            1    -0.328519      1.02708      83.0943
51            1            1     0.591335     0.600259      84.2641
52            1            1     0.379251      25.9826      84.3425
53            1            1      1.38519      25.4452      85.2825
54            1            1      1.37381      26.1837      86.6017
55            1            1      2.53692       25.707      87.4304
56            1            1      2.16598      24.2984      87.7925
57            1            1      3.10713      23.8645      88.9153
58            1            1      3.14739      25.0354      89.8486
59            1            1      3.98481       24.691       91.131
60            1            1      4.28412      26.0148      91.8509
61            1            1      5.32877      25.7872      92.8275
62            1            1      5.47035     0.139852      93.7227
63            1            1      4.93985    -0.205552      95.0609
64            1            1      5.11121      1.01928      95.9127
65            1            1      4.12346      0.77347      97.0455
66            1            1      4.76074      26.7233      98.0091
67            1            1      3.78051      25.9774      98.9074
68            1            1      4.49173      24.9281      99.8121
69             1             1       3.67729       24.5255        100.95
70             1             1       4.29755       23.3928       101.785
71             1             1       3.28279       23.1071       102.842
72             1             1       3.61452       22.1029       103.884
73             1             1       2.62067        21.794       104.977
74             1             1       3.34047       20.9163       105.968
75             1             1       3.85318       21.7812       107.099
76             1             1       4.76333       21.0843       108.066
77             1             1       5.14342       21.8459       109.326
78             1             1       6.28131       21.0907       110.024
79             1             1         6.666       22.0072       111.069
80             1             1       7.52595       21.2099       112.029
81             1             1       8.15958       22.2272       112.875
82             1             1       7.23741       23.5156       112.881
83             1             1       7.92535        24.546       113.669
84             1             1       8.92113       23.8688       114.453
85             1             1       9.38257       24.7693       115.582
86             1             1       10.2857       23.8711       116.472
87             1             1       10.8805       24.5302       117.754
88             1             1       11.9249       23.6835       118.529
89             1             1       12.5743       24.3042       119.731
90             1             1       11.6652       24.6424       120.892
91             1             1       12.0995       25.6987       121.877
92             1             1       11.1154       25.6038       123.004
93             1             1       11.0956       26.8159       124.005
94             1             1       10.3008        26.382       125.186
95             1             1       10.5905        25.144        125.88
96             1             1       9.32394       24.8888       126.756
97             1             1       8.84105       26.1589       127.459
98             1             1       7.53084       25.8741       128.188
99             1             1       7.76221       24.5294       128.973
100             1             1       6.63616       24.2435       129.937
101             1             1       5.88898       25.3872         130.6
102             1             1       4.92267       24.8242       131.474
103             1             1        5.4404       23.9329       132.546
104             1             1       4.20902        23.746       133.423
105             1             1       4.45299       22.5011       134.209
106             1             1       3.36201       22.4036       135.242
107             1             1       3.75861       23.3327       136.333
108             1             1       2.68568       23.7476       137.325
109             1             1       2.91363       24.9789       138.148
110             1             1        1.7312       24.8665       139.145
111             1             1        1.8522       26.1473       139.946
112             1             1      0.912117       26.0126       141.094
113             1             1       1.01369      0.383679       141.942
114             1             1      0.368534      0.391562       143.229
115             1             1      0.192238       1.74476       143.768
116             1             1        30.665       1.74623       145.116
117             1             1        29.347       1.14478       145.414
118             1             1       28.8565       1.37829       146.819
119             1             1       27.6238      0.578078       147.287
120             1             1       27.3078      0.968329       148.733
121             1             1       27.3826       2.42056        148.82
122             1             1        27.459       3.03171       150.174
123             1             1       28.4163        2.2866       151.131
124             1             1       28.8576       3.19936       152.213
125             1             1       27.5807       3.80549       152.804
126             1             1        27.805       5.07892       153.681
127             1             1       28.7699       4.56187       154.699
128             1             1       28.7768       5.71485       155.666
129             1             1       29.8189       5.48101       156.792
130             1             1       29.7172       6.45474       158.017
131             1             1       30.7207       6.27359       159.174
132             1             1       30.8854       7.40286       160.104
133             1             1      0.825592       7.14198       161.079
134             1             1       0.66916        7.8558       162.382
135             1             1       1.93525       7.90817       163.331
136             1             1       1.64527        8.8951       164.417
137             1             1       2.79755       9.03747        165.39
138             1             1       2.49748       9.84035       166.591
139             1             1       1.05703       10.1518       166.813
140             1             1       1.01146       10.5378       168.166
141             1             1       1.96145       11.6501       168.463
142             1             1        1.2831       12.5253       169.481
143             1             1      0.848771       11.9162       170.747
144             1             1       1.90286       11.2954       171.564
145             1             1       1.25169       10.6631       172.821
146             1             1    -0.0606357       9.90321       172.528
147             1             1          30.4       9.18182       173.678
148             1             1      0.219455        8.3576       174.478
149             1             1       30.7209        7.8354       175.762
150             1             1      0.462718       6.96748       176.533
151             1             1    -0.0113101       6.47759       177.887
152             1             1       1.15928       6.04944        178.76
153             1             1      0.892109       5.24851       179.921
154             1             1       2.13291       5.02872       180.765
155             1             1       1.62895       4.15162       181.964
156             1             1       2.69546       3.57275       182.848
157             1             1        2.4775       2.89491       184.192
158             1             1       1.01231       2.59093       184.452
159             1             1       1.00371       1.49751       185.451
160             1             1       2.10754       1.58954         186.5
161             1             1       1.98599      0.508346       187.586
162             1             1       2.85159      0.863368       188.828
163             1             1       3.10349       26.5474       189.676
164             1             1       4.26839     -0.275094       190.638
165             1             1       4.38258       25.5237       191.765
166             1             1       5.43326       25.8431        192.79
167             1             1       4.90365      0.149701       193.509
168             1             1       5.75086      0.454697        194.76
169             1             1       5.55008       1.58379       195.768
170             1             1       6.71186        1.8831       196.694
171             1             1       6.19105       2.66005       197.807
172             1             1       4.91199       2.14543       198.359
173             1             1       4.56903       3.08768       199.556
174             1             1       3.33638        2.4405       200.158
175             1             1       3.16925       3.30889       201.478
176             1             1       1.91975       3.19638       202.342
177             1             1       1.91857       1.79071       203.027
178             1             1       3.36795       1.62141       203.409
179             1             1       3.53203      0.538267       204.448
180             1             1        2.5314      0.716558       205.596
181             1             1       2.44739       26.3433       206.419
182             1             1       3.82284       25.9579       207.083
183             1             1       4.17408     -0.150056        208.37
184             1             1       5.10375        25.999       209.286
185             1             1        5.7114      0.131887       210.258
186             1             1       6.95959       26.5355       210.997
187             1             1       7.19585      0.491648       212.243
188             1             1       6.10215      0.509904        213.27
189             1             1       6.13986       1.70966       214.144
190             1             1       5.13364       1.85542       215.273
191             1             1       5.51097       3.07714       216.117
192             1             1       4.48295       3.20911       217.241
193             1             1       4.33548       1.85947       218.003
194             1             1       3.35318       2.14532       219.088
195             1             1       3.49025       1.16622       220.208
196             1             1       2.20443       1.10196       220.992
197             1             1       2.06282      0.202016       222.127
198             1             1       3.45173     0.0636494       222.665
199             1             1       3.45744       25.8432       223.653
200             1             1       2.38849        26.242       224.539
201             1             1       2.13983       25.0952       225.507
202             1             1       3.40397       24.6978       226.225
203             1             1       3.20478        23.399       226.966
204             1             1       2.26696        23.566       228.114
205             1             1       2.09303       22.3116        228.91
206             1             1       1.13297       22.5407       230.111
207             1             1      0.725885       21.2776       230.951
208             1             1      0.373079       21.5559        232.38
209             1             1       30.5786       22.7354       232.241
210             1             1       30.1947       23.4312       233.567
211             1             1       30.6736       22.6085       234.733
212             1             1       30.4129       23.4547       235.981
213             1             1       29.4552       24.4883       235.591
214             1             1       29.0646       25.4016       236.647
215             1             1       28.0747       24.7903       237.656
216             1             1       28.2913       25.6065       238.909
217             1             1       29.7766       25.6631       239.221
218             1             1       30.1248       26.0803       240.623
219             1             1       29.0121    -0.0309911       241.116
220             1             1       29.3463       1.08872       242.047
221             1             1       30.1673      0.454469       243.145
222             1             1       30.4512       1.53291       244.131
223             1             1       29.4947       2.63396       244.116
224             1             1        29.608       3.59985       245.266
225             2             1        1.8556       5.01644       245.038
226             2             1       3.04289       4.64972       245.893
227             2             1       3.27647       5.78631       36.8215
228             2             1       4.24019       5.50126       37.9267
229             2             1       4.39008       6.57474       38.9542
230             2             1       3.04404       7.11751       39.3124
231             2             1       3.20327       8.09003       40.4931
232             2             1       4.25948        7.4617       41.3803
233             2             1       4.18494        8.0062       42.8014
234             2             1       4.77008       9.40068       42.9288
235             2             1       4.43668       10.0582       44.2537
236             2             1       3.07317       10.5591       44.5224
237             2             1       2.19921       9.62629       45.3132
238             2             1       3.01344       8.86602       46.2648
239             2             1       2.09941       7.92397       46.9052
240             2             1       2.56544       7.10144       48.0794
241             2             1       1.33705       6.51176       48.7835
242             2             1        1.6745       5.64787       50.0297
243             2             1      0.451709       5.43651       50.9293
244             2             1      0.880436       4.62619       52.1874
245             2             1       2.29176       4.97465       52.7523
246             2             1       2.54303       4.50223       54.1214
247             2             1       1.95409       3.12995       54.3601
248             2             1       2.12934       2.50715       55.7108
249             2             1       3.13065       3.13365       56.5879
250             2             1       3.19871       2.32084       57.8772
251             2             1       2.21897       1.16503       57.9916
252             2             1           2.3      0.450862       59.2901
253             2             1       2.02298       1.44166        60.416
254             2             1      0.526117       1.84129       60.4124
255             2             1      0.105214        2.7525       61.5879
256             2             1       1.25753       2.82248       62.5868
257             2             1       1.01576       3.97422       63.4284
258             2             1        2.2262       4.20997       64.3339
259             2             1       2.75144       2.86973       64.9304
260             2             1        1.6486       2.13984       65.7385
261             2             1       1.86007       2.53874       67.2383
262             2             1       2.78313       1.38436       67.6715
263             2             1       1.94401       0.46257       68.5352
264             2             1       1.14996       1.28194       69.5466
265             2             1    -0.0296027      0.630262         70.28
266             2             1       30.8146       1.59816       71.4142
267             2             1       29.6124       1.43838        72.341
268             2             1       29.7641       2.47352       73.4328
269             2             1       30.7172       2.22433         74.59
270             2             1       30.9037       3.37018        75.642
271             2             1      0.664493       3.13456       76.7961
272             2             1      0.979526       4.23813       77.7026
273             2             1        1.9072       3.79005       78.7215
274             2             1       2.17901       4.81828       79.7288
275             2             1       2.89489       4.00368       80.7484
276             2             1       2.25842       2.65818       80.9865
277             2             1        2.8707       1.94632        82.189
278             2             1        3.4943       3.17596       82.8479
279             2             1       4.54432       2.46429       83.6142
280             2             1       3.91274       1.24102       84.2555
281             2             1       5.01171      0.602445       85.0197
282             2             1       5.74555       1.62221       85.8781
283             2             1       6.62287      0.919676       86.9203
284             2             1       5.82158     -0.267654       87.4563
285             2             1       6.10473       26.4287        88.888
286             2             1       7.26927      0.501533       89.2085
287             2             1       7.91361    -0.0106391       90.4978
288             2             1       8.01474       1.09344        91.459
289             2             1       8.85191      0.768663       92.6962
290             2             1       9.14901       1.83738       93.7616
291             2             1       8.41234        1.8787       95.0313
292             2             1       8.66931       3.05154       95.8916
293             2             1       8.04028       2.91388       97.2804
294             2             1        8.4136       1.70164       98.0357
295             2             1       7.70858       1.55103       99.3763
296             2             1       8.11647      0.326174       100.095
297             2             1       7.20075       26.8381       101.225
298             2             1       7.79104       25.6045       101.996
299             2             1       6.86069       25.2535       103.025
300             2             1       7.44506       24.4328       104.164
301             2             1       6.26695       23.8059       104.937
302             2             1       6.81121       23.0381       106.119
303             2             1       7.96333       23.7626       106.792
304             2             1       8.31081       23.0262        108.08
305             2             1        9.5077       23.7753       108.578
306             2             1       9.95484       23.0176       109.779
307             2             1       10.7916       23.9281       110.694
308             2             1       10.0916       25.2202       110.562
309             2             1       10.6159       26.2285       111.573
310             2             1       11.6848       25.6136       112.408
311             2             1       12.2262       26.4118       113.491
312             2             1       12.7902       25.7692       114.797
313             2             1       13.5736        26.669       115.675
314             2             1       14.2002       25.8138        116.73
315             2             1        14.929       26.6406       117.758
316             2             1       15.6985       25.7511       118.695
317             2             1       16.2363       26.5434       119.865
318             2             1       15.1391    0.00870334       120.855
319             2             1       15.4118       1.18501       121.828
320             2             1       14.3661       1.44587       122.879
321             2             1       14.9423       2.55146       123.721
322             2             1       14.0542       2.72597       124.945
323             2             1       14.0962       1.50049       125.723
324             2             1       12.9734       1.54697       126.728
325             2             1       12.9389      0.303847       127.468
326             2             1       12.1219       0.43781       128.654
327             2             1       12.0369       26.0564       129.482
328             2             1       11.2459       26.3535       130.784
329             2             1       9.91299     0.0320245       130.473
330             2             1       9.14982      0.190766       131.731
331             2             1       8.94054       25.7858       132.542
332             2             1       7.98414       26.0932       133.662
333             2             1        7.9927        24.986       134.628
334             2             1       6.83623       24.8748       135.574
335             2             1       7.08643        26.061        136.47
336             2             1        6.2252       26.0432        137.66
337             2             1       6.35012      0.399638        138.45
338             2             1       5.20468      0.261923       139.383
339             2             1       5.37678       1.27886       140.466
340             2             1       4.24686       1.45636       141.389
341             2             1       4.37908       2.71484       142.181
342             2             1       3.60127       2.80172       143.532
343             2             1       3.85202       4.11166       144.273
344             2             1       2.83875       4.49054       145.261
345             2             1       2.58001       3.38005       146.333
346             2             1       1.48863       4.10738        147.23
347             2             1       1.00638       3.19347       148.323
348             2             1     -0.234263       3.59494       148.958
349             2             1    -0.0523218       4.62491       150.023
350             2             1       1.30852       4.42431       150.546
351             2             1       1.42463       5.19552       151.826
352             2             1      0.177388       5.99732       152.184
353             2             1      0.306232       6.98164       153.279
354             2             1       1.04181       6.51596       154.494
355             2             1       1.05419       7.66029       155.558
356             2             1       2.02803       7.30516       156.713
357             2             1       2.15597       8.53966       157.608
358             2             1       3.33647       8.49268       158.548
359             2             1       3.26264       9.52167        159.59
360             2             1       4.42705       9.34354       160.578
361             2             1       4.29388        10.153       161.892
362             2             1       5.44413       9.98608       162.845
363             2             1       5.76423       11.0469       163.903
364             2             1       6.87035       10.4738        164.85
365             2             1       7.04344       11.4534        165.94
366             2             1       5.58669       11.6593       166.296
367             2             1        5.4086       12.9298       167.093
368             2             1       6.21472         12.95       168.326
369             2             1       5.64843       13.9259       169.331
370             2             1       4.46686       13.2436       170.003
371             2             1       4.28105       13.9779        171.36
372             2             1       5.21427       13.5624       172.465
373             2             1       4.73171       12.2333       173.158
374             2             1       5.62253       11.9173       174.381
375             2             1       5.10366       10.6426       175.028
376             2             1       3.57934       10.7164       175.131
377             2             1       3.00667       9.64897        176.04
378             2             1       3.70776       9.64762       177.358
379             2             1       3.53265       8.31563       178.174
380             2             1       4.12893       8.30409       179.543
381             2             1       4.67794       6.95214       179.926
382             2             1       5.02403       7.11433        181.45
383             2             1        5.5445       5.85514       182.108
384             2             1       5.58188       5.87633        183.63
385             2             1       6.09953       4.51562       183.974
386             2             1       6.51091       4.50397       185.431
387             2             1       5.22771       4.17218       186.173
388             2             1       5.51392       2.94303       186.977
389             2             1       6.63523       3.17558       188.027
390             2             1       6.49336       2.08655       189.062
391             2             1       7.68383       2.05559       189.964
392             2             1       7.53804      0.768882       190.827
393             2             1       8.42993       1.03164       191.925
394             2             1       8.32115       2.24846       192.808
395             2             1       9.36605       2.26714        193.95
396             2             1       9.24021       3.44895       194.894
397             2             1       10.3386       3.67575       196.032
398             2             1       10.0819       4.83964       197.057
399             2             1       9.04971       4.23708       198.038
400             2             1       8.75661       5.21701       199.227
401             2             1       7.55484       4.94632       199.987
402             2             1        7.2349       6.12826       200.943