LAMMPS data file via write_data, version 23 Jun 2022, timestep = 11111117

9706 atoms
2 atom types
9690 bonds
3 bond types
9674 angles
3 angle types
9658 dihedrals
3 dihedral types

0 36.89775039 xlo xhi
0 26.67072 ylo yhi
15.873061281844784 220.8785431181708 zlo zhi
0 6.4499188354576305 0 xy xz yz

Masses

1 14
2 15

Pair Coeffs # lj/cut/omp

1 0.0914 3.95
2 0.1947 3.75

Bond Coeffs # harmonic/omp

1 449.5 1.53
2 449.5 1.53
3 449.5 1.53

Angle Coeffs # harmonic/omp

1 62.0967 114
2 62.0967 114
3 62.0967 114

Dihedral Coeffs # opls/omp

1 1.411 -0.271 3.145 0
2 1.411 -0.271 3.145 0
3 1.411 -0.271 3.145 0

Atoms # molecular

1 17 1 6.822553726331438 0.5835801292780091 21.525295492134266 0 0 0
2 17 1 7.383107977811881 1.308085144724589 22.7000429593275 0 0 0
3 17 1 8.237382799314533 0.4630789723936936 23.566118697124466 0 0 0
4 17 1 8.979102053636108 1.2534504792304724 24.636603555351023 0 0 0
5 17 1 9.841972127286077 0.4846461772255457 25.643954456745703 0 0 0
6 17 1 10.288886186266474 1.3261883235879186 26.863345028405764 0 0 0
7 17 1 11.179530395324223 0.5656622769342404 27.759003153876854 0 0 0
8 17 1 12.001520171627147 1.4394250166098144 28.741850708221563 0 0 0
9 17 1 12.90968139425787 0.529898530974737 29.55766265782372 0 0 0
10 17 1 13.6963529618397 1.2601573822421945 30.61768064255294 0 0 0
11 17 1 14.806426069844386 0.4464636079933714 31.22804442473611 0 0 0
12 17 1 15.36278753713834 1.2267053662464553 32.448329041491576 0 0 0
1844 59 1 18.23373123445896 21.48125607483764 30.164464267096804 0 0 0
7692 1 1 5.434092909794373 4.854547304530284 32.81700484428879 0 0 0
5414 40 1 2.415970322904435 6.635151332443414 34.997047804907325 1 0 0
7238 52 1 7.377739756087912 0.17130686289123068 34.40588482046513 0 0 0
7451 5 1 0.5158405779450657 2.7879863136928633 20.103750894678477 1 0 0
7686 1 1 0.8798046177578005 4.147713582068882 26.72196748936627 0 0 0
696 4 1 18.256200143483973 8.305156785884757 30.671958555064027 0 0 0
221 17 1 3.7136396052285985 0.6881823199066206 17.590188674652453 0 0 0
222 17 1 4.382203324329342 1.5339294656913172 18.57809583236938 0 0 0
223 17 1 5.477513754960918 0.7365943636266719 19.33446388372719 0 0 0
224 17 1 5.866660810036323 1.3994767574618188 20.65670948298151 0 0 0
225 3 1 11.69982413412812 3.418830312674167 22.9545768345784 0 0 0
226 3 1 12.893847957356254 2.714918022643437 23.58880467565259 0 0 0
227 3 1 13.188974015035534 3.379973021002067 24.891885867262864 0 0 0
228 3 1 14.393042465825204 2.7238430047718682 25.575034101059675 0 0 0
229 3 1 14.87838527136843 3.515828910209434 26.823069372798933 0 0 0
230 3 1 16.166027885133623 3.0375648163311784 27.47799165733411 0 0 0
231 3 1 16.302728477573886 3.700679537954699 28.826237737330487 0 0 0
232 3 1 17.47736934432242 3.1143190626229953 29.576822634485783 0 0 0
220 17 1 2.77796205009499 1.557463728814376 16.732036199299223 0 0 0
1159 9 1 17.31466975911491 14.72831407040618 35.00326944903453 0 0 0
444 3 1 8.482154243760872 2.9539128976293765 17.489877319862146 0 0 0
3411 26 1 13.802092172894199 9.810161269540194 19.534100663023814 0 0 0
8663 62 1 0.6311047726058112 16.03552421019363 20.07439253143303 1 0 0
7236 52 1 5.523015553286532 0.3232899960995597 32.46454847935483 0 0 0
8665 62 1 2.119693664460442 15.930621866734807 22.12120264651746 0 0 0
4037 46 1 18.02192204304078 19.35835582079528 24.198795179746334 0 0 0
3028 30 1 11.556926488448731 5.947271860508033 16.135750282650243 0 0 0
448 3 1 11.307603122759248 2.755600912594324 21.65537221384398 0 0 0
449 3 1 6.475086512937648 4.952099199941689 22.06228428325926 0 0 0
450 3 1 7.6031562199876666 5.612037614201624 22.86883907932642 0 0 0
451 3 1 8.126530910719302 4.880546086990502 24.13295895695997 0 0 0
452 3 1 9.226930669801307 5.628753982799639 24.895381362171563 0 0 0
453 3 1 9.679042667213514 5.0566962417768435 26.304186651826875 0 0 0
454 3 1 10.971921126190486 5.66791193917741 26.812644204874466 0 0 0
455 3 1 11.495017448111387 4.8859893135760855 28.023907889293064 0 0 0
456 3 1 12.423443430417336 5.727622657366557 28.939867995777174 0 0 0
457 3 1 12.95068291208971 4.975801663278592 30.136322536614898 0 0 0
458 3 1 13.988807098635958 5.741690406712806 30.946731811927208 0 0 0
459 3 1 14.325238634404338 5.290342385022442 32.359242018290374 0 0 0
8670 62 1 6.545509792161549 16.5240294730406 26.765822303038256 0 0 0
8127 56 1 2.691311746894357 9.172619990562032 28.396315449598234 1 0 0
1908 59 1 6.131043203839951 20.609760723637635 15.965393256874385 0 0 0
4254 6 1 18.348220015714155 21.0547993137348 18.897009217486644 0 0 0
2126 15 1 2.9714440188059643 23.68585934176718 16.801121757430174 0 0 1
1317 12 1 17.76382563069936 16.157792995686457 29.483300321860096 0 0 0
8887 59 1 1.1985938648947254 18.258510063448174 26.13537761375514 1 0 0
445 3 1 8.915503579208186 3.6021330185490195 18.820949595170685 0 0 0
524 3 1 3.1553746596582903 5.328021536562884 18.116794028242648 0 0 0
525 3 1 4.397113993718236 5.837344041796949 18.956442549133037 0 0 0
526 3 1 4.660958486745761 5.181065347426246 20.310996613171458 0 0 0
527 3 1 5.998564553623854 5.756296711490744 20.869015799418978 0 0 0
686 4 1 10.11460697762456 8.107564295328983 20.824797123566576 0 0 0
687 4 1 11.074397701170527 7.2782328582377085 21.701816272479594 0 0 0
688 4 1 11.995408565504558 8.10518328393704 22.67268102175442 0 0 0
689 4 1 12.732343230590962 7.326962011836043 23.78094019857798 0 0 0
690 4 1 13.458542922868622 8.285129849330827 24.71442061343921 0 0 0
691 4 1 14.19624227069825 7.476795126656445 25.746508868814807 0 0 0
692 4 1 14.925402309070202 8.183935922224041 26.930005574657883 0 0 0
693 4 1 15.831274011717252 7.348495319789355 27.778860034484815 0 0 0
694 4 1 16.44657173222918 8.181020123039255 28.871207967411706 0 0 0
3109 22 1 16.721422330211617 7.407265086701137 17.11516730030281 0 0 0
2804 33 1 17.160999811062165 3.6387006830979085 18.289778157708973 0 0 1
9275 62 1 0.954077886993177 22.394304705945547 26.531936846884122 0 0 0
3857 39 1 13.472717017949998 15.140328127295035 18.170518701984857 0 0 1
447 3 1 10.077637302973205 3.408846460813499 20.989545722367872 0 0 0
2803 33 1 16.914137938899454 3.032773181085982 16.932230988258553 0 0 1
762 4 1 8.150729367862604 7.187986474635062 17.559965886231165 0 0 0
763 4 1 8.7147286835931 8.00335310037628 18.683612196256995 0 0 0
764 4 1 9.54981659108016 7.199682254624587 19.70518118581783 0 0 0
765 47 1 6.810090064318234 9.213789552760312 22.059418153315885 0 0 0
766 47 1 7.522029308828043 9.920054555798155 23.214272096557877 0 0 0
767 47 1 8.18845774081612 9.044595790579493 24.322037668936094 0 0 0
768 47 1 9.227272153311748 9.831313217083215 25.068860388253285 0 0 0
769 47 1 10.068914436399963 9.058111240474613 26.090081832224225 0 0 0
770 47 1 10.961485837352866 9.943539875941344 26.988225570385794 0 0 0
771 47 1 11.71346370064732 9.235497987591327 28.183202909500956 0 0 0
772 47 1 12.636689382671195 10.047944787094778 29.00288946112589 0 0 0
773 47 1 13.33997692565803 9.234096565953166 30.13095906730291 0 0 0
774 47 1 14.20404652976286 10.112695333369867 30.99933458672392 0 0 0
775 47 1 14.982961732843808 9.402590514665961 32.1401196949124 0 0 0
776 47 1 15.962947187128146 10.243018917469318 32.943321086776436 0 0 0
7688 1 1 2.17338579015554 4.460512980405878 28.891959057360033 0 0 0
7901 9 1 1.7769753400596269 7.143381330878167 22.658893022901594 0 0 0
7239 52 1 8.230761573252394 0.9644476772527949 35.38304616858828 0 0 0
3416 29 1 17.903002934774698 12.626117927507208 17.982958970671007 0 0 0
4036 46 1 17.389405001264354 18.48878552324304 23.149558740827295 0 0 0
8506 56 1 0.9904991079756322 13.919132882500868 26.607064031890438 0 0 0
2812 30 1 17.656563005814068 5.977796988986905 24.316823380659777 0 0 0
985 47 1 3.976161659754526 9.471366247765141 17.798258552173177 0 0 0
986 47 1 4.428571659108978 10.104165777431017 19.124130166650563 0 0 0
987 47 1 5.339990787103905 9.352274937610511 20.065171635372913 0 0 0
988 47 1 6.078202103975191 10.214241600090679 21.148716007231734 0 0 0
1068 4 1 14.1831992380746 11.781565153275732 25.864220034380864 0 0 0
1069 4 1 15.253669664536597 12.55641457827854 26.577726754465715 0 0 0
1070 4 1 16.04798802773963 11.878998281208807 27.68706086651628 0 0 0
1071 4 1 17.098352870398262 12.667764834143052 28.517283084636436 0 0 0
1072 4 1 17.63896764502933 11.964413178748506 29.729722500034864 0 0 0
4409 38 1 11.663741628658874 23.859740075579943 16.31771929595406 0 0 0
4788 35 1 17.44314241394277 26.000337848585218 18.10709537611736 0 0 1
9184 61 1 1.6174789868736004 21.04819085697335 20.88002719859918 0 0 0
8890 59 1 3.5767401933910294 18.653962971645466 29.272777596143932 1 0 0
6252 42 1 4.1375611166749255 16.59675246734638 35.14114877450382 0 0 0
761 4 1 7.351537769582642 8.03176705427438 16.535308697708864 0 0 0
8510 56 1 4.073851714315717 13.841039968667713 30.621414652541176 0 0 0
8664 62 1 1.6398537020798893 16.791941643138447 20.934251250211762 0 0 0
2353 16 1 8.090212365264636 25.170168157220953 17.580027329113825 0 0 1
1143 4 1 11.225902289173908 11.468484099640976 21.78001793831394 0 0 0
1144 4 1 12.470160973857029 11.99936622448817 22.497113773547245 0 0 0
1145 4 1 12.621465828296854 11.576473791774555 23.97782836406322 0 0 0
1146 4 1 13.796496373959425 12.364605522726515 24.530057577227215 0 0 0
1147 9 1 8.002607702183791 14.559909661384928 22.98295653903709 0 0 0
1148 9 1 8.763511327008954 13.893104927648517 24.092320378820737 0 0 0
1149 9 1 9.807747134423032 14.719185253293373 24.807648391780482 0 0 0
1150 9 1 10.229521274859302 13.953759589025468 26.083604554369206 0 0 0
1151 9 1 11.40434599521057 14.580861112528012 26.85841886855824 0 0 0
1152 9 1 11.662889764329083 13.818778845047332 28.146176966995768 0 0 0
1153 9 1 12.834347592949259 14.481728988672886 28.938198070643327 0 0 0
1154 9 1 13.320797457921932 13.694669421052755 30.11452611580871 0 0 0
1155 9 1 14.211052109053137 14.580799571611779 30.955345064434404 0 0 0
1156 9 1 15.007765670975274 13.864134532510286 32.04696834685321 0 0 0
523 3 1 3.2203837528160677 5.373279327093329 16.629827628519326 0 0 0
7900 9 1 1.6336481976641146 7.790559346692349 21.292322430054266 0 0 0
3858 30 1 14.495732115110316 14.428422890216883 18.909097438977227 0 0 0
6693 48 1 2.1420349607768343 20.953357079828628 33.71451351532859 1 0 0
1074 4 1 18.91730523124917 12.223269639448453 31.94622606374494 0 0 0
9500 63 1 7.543430511557216 24.97045199769311 27.980042775786714 0 0 0
4418 38 1 18.69001157352027 22.96973600736363 25.409327379508845 0 0 0
1220 9 1 3.5443821296313414 14.666876762812654 16.78341697495568 0 0 0
1221 9 1 3.8816384117550315 13.911682123266026 18.065998646846456 0 0 0
1222 9 1 5.054251536212673 14.501082636327695 18.816619697911573 0 0 0
1223 9 1 5.268818537680861 13.94392502111633 20.227164415033847 0 0 0
1224 9 1 6.572927688409653 14.419266875234053 20.803482374817197 0 0 0
1225 9 1 6.996017458161935 13.778161290495811 22.188912155976098 0 0 0
1305 12 1 8.251734523560545 16.126919386927664 17.631534376712807 0 0 0
1306 12 1 8.744920802507936 16.961178766015134 18.837208776256237 0 0 0
1307 12 1 9.649267253850203 16.163658964140364 19.76804188358282 0 0 0
1308 12 1 10.320912695743054 16.975066197320814 20.875278773079252 0 0 0
1309 12 1 11.593235358582287 16.25316515717514 21.402861896468412 0 0 0
1310 12 1 12.225922587443677 17.0700396028858 22.580711556878846 0 0 0
1311 12 1 13.178216431910123 16.06458614788022 23.248924429964926 0 0 0
1312 12 1 13.89593625812746 16.805840674289783 24.367450367520306 0 0 0
1313 12 1 14.817115179826503 15.879434683823987 25.162018471290118 0 0 0
1314 12 1 15.304634488233635 16.6782657758217 26.390970324096998 0 0 0
1315 12 1 16.249341844434014 15.942722011488321 27.313115392019316 0 0 0
1541 43 1 14.858944251532133 18.494015819435425 31.465078306775926 0 0 0
9281 62 1 6.3931906386140325 22.679614569467457 31.94681025736269 0 0 0
4252 6 1 16.647226019621755 20.969039280473705 17.08105050246703 0 0 0
3192 26 1 18.344390585223106 9.829367102927685 24.023586749806928 0 0 0
1073 4 1 18.838788015966795 12.557558838549536 30.43670550758326 0 0 0
2359 29 1 11.628542374505846 1.4724295287882383 16.134516572050003 0 0 0
5415 40 1 3.5608149772179774 7.197682349451279 35.805804587184625 1 0 0
1529 43 1 5.290400269534181 18.587883047783247 19.87376439245589 0 0 0
1530 43 1 5.6462239083106605 19.207582652950023 21.1789531339677 0 0 0
1531 43 1 6.658519174273135 18.435792038995857 22.007396457521434 0 0 0
1532 43 1 7.483608782870135 19.259401388969227 23.013054834424956 0 0 0
1533 43 1 8.487398598988442 18.348412257744307 23.743237965625116 0 0 0
1534 43 1 9.212115019820807 18.983019851037145 24.89503985791954 0 0 0
1535 43 1 10.073899403480851 18.022677458970836 25.66532681128078 0 0 0
1536 43 1 10.695759849629923 18.854975599452136 26.757299399788742 0 0 0
1537 43 1 11.74628426237462 17.997577132815913 27.563944774069377 0 0 0
1538 43 1 12.294001021329903 18.81373208409964 28.68586823152831 0 0 0
1539 43 1 13.428103647399833 18.15139440326981 29.484220834017126 0 0 0
1540 43 1 14.03366311209777 19.20456348306867 30.404104641609067 0 0 0
1067 8 1 9.510964957306872 11.822551020281754 19.916688472413693 0 0 1
1066 8 1 9.214411004900883 12.553069807487939 18.60179571016727 0 0 1
2813 30 1 18.376801321555046 5.161493441967146 25.431080501304677 0 0 0
778 47 1 17.562491468854155 10.140915657954698 34.84800589967293 0 0 0
8672 62 1 7.849894426133244 16.499309470650626 28.866532083529478 0 0 0
2127 15 1 3.65164642455377 22.819253610955435 17.85493447104628 0 0 1
3408 24 1 11.655442249892179 10.430155238821916 16.430457538828442 0 0 1
3032 22 1 18.22725620664614 7.262868012670119 19.139189141759463 0 0 0
2142 17 1 18.35689536572837 26.008289953036535 30.451949959512806 0 0 0
1751 43 1 3.85988507895086 18.582933920195895 17.813869654329213 0 0 0
1752 43 1 4.349472796162654 19.3933413398086 18.995199535007664 0 0 0
1832 59 1 9.193327749226002 21.225837569797857 18.2779104509935 0 0 0
1833 59 1 9.525893868557588 20.310201033645583 19.47572738546737 0 0 0
1834 59 1 10.325626944943487 21.182797340430866 20.37251368579666 0 0 0
1835 59 1 10.840120633492136 20.473365093446496 21.638976884528446 0 0 0
1836 59 1 11.579394762950148 21.396502693230946 22.60321869838151 0 0 0
1837 59 1 12.386040154438607 20.612757004087793 23.594124033412726 0 0 0
1838 59 1 13.513385382675281 21.341253228354933 24.328235736069402 0 0 0
1839 59 1 14.330499199035335 20.56392774705674 25.337271944432374 0 0 0
1840 59 1 15.457774323430852 21.296636454636598 26.000676751705235 0 0 0
1841 59 1 15.890521412490425 20.381858913734536 27.202190899327793 0 0 0
1842 59 1 16.91386727540672 21.17816075588194 27.929835232318574 0 0 0
8679 62 1 13.47612652526272 15.603113092677399 36.047300986462616 0 0 0
8128 56 1 3.759676719818295 9.841111731662824 29.218794466304743 0 0 0
1545 43 1 17.585364288919838 18.49876415225647 35.731542879541735 0 0 0
1064 8 1 7.6995480953088 12.557440753541917 16.441384625715163 0 0 1
522 3 1 1.839016962407003 5.103918551907649 16.048630450179544 0 0 0
2802 33 1 15.680559457094859 3.5940361743359244 16.253251828135703 0 0 1
1910 59 1 7.859081681187847 20.791231567571042 17.800478264012018 0 0 0
1911 63 1 9.931390586167334 22.821797196951046 25.78708844167153 0 0 0
1912 63 1 10.991968577776062 23.60341853101975 26.510782505086034 0 0 0
1913 63 1 11.866138578664506 22.727396469498306 27.494000256606615 0 0 0
1914 63 1 12.692076275824867 23.52149272350093 28.53074375090234 0 0 0
1915 63 1 13.296420065939449 22.71803127884586 29.66677260048997 0 0 0
1916 63 1 14.193035266820438 23.595113657435572 30.555523107183802 0 0 0
1917 63 1 14.668735535445085 22.842891600906146 31.774481619409492 0 0 0
1918 63 1 15.444453757643878 23.72123723655194 32.653672358925476 0 0 0
1919 63 1 16.238897222368113 22.938269100890118 33.733468512925434 0 0 0
1920 63 1 17.138954651946854 23.692218857452886 34.67111017255894 0 0 0
6248 42 1 0.8877587404391483 16.57881313395448 31.39387200701011 1 0 0
5031 64 1 2.6787267346631163 2.3348321483027337 34.56804839615389 1 0 0
13 17 1 16.349372816548442 0.5287405399618443 33.3558510154695 0 0 0
3410 26 1 13.48812976829451 10.157196597413412 18.08309169364569 0 0 0
984 47 1 3.0308441426470747 10.366342942350615 16.92851798973587 0 0 0
9507 63 1 12.916670157916238 26.046679592384347 35.01990375315068 0 0 0
8678 62 1 12.96384636002344 16.387619262593105 34.84489862965788 0 0 0
2129 63 1 5.473586834507572 22.827208891905684 19.669081806387403 0 0 0
2130 63 1 6.3199678151663745 23.669838944639377 20.690571232525397 0 0 0
2131 63 1 6.9142683305894135 22.713092850771407 21.77593197008319 0 0 0
2132 63 1 7.601109557934792 23.461665454951614 22.86060944931561 0 0 0
2133 63 1 8.420553327001839 22.580652721861007 23.786028272093105 0 0 0
2134 63 1 9.102556435175494 23.533401929375888 24.723851939662524 0 0 0
2135 17 1 12.553105342839187 24.85764719545269 23.5793483094879 0 0 0
2136 17 1 13.642900077882333 25.697321015984393 24.33872746715327 0 0 0
2137 17 1 14.351607394783732 24.89256467294768 25.420475157944463 0 0 0
2138 17 1 15.073902284503813 25.755402378944122 26.444347340513044 0 0 0
2139 17 1 16.012723350343588 25.002416904797172 27.391412357020506 0 0 0
2140 17 1 16.873193320782416 25.834011096129906 28.43964274151213 0 0 0
2141 17 1 17.678047287313515 25.0272146242201 29.45329913400136 0 0 0
5032 64 1 3.3248929275135857 3.0656249124685724 35.76503072118257 0 0 0
6249 42 1 1.6297996202924452 15.673955201874264 32.31154348115447 1 0 0
8129 56 1 4.200404999424372 9.014209016537048 30.4424290521705 0 0 0
8436 40 1 12.77859086400218 12.067573427678978 34.78641103459543 0 0 0
9282 62 1 6.862000941859752 23.34926430492591 33.305376757728965 0 0 0
9280 62 1 5.294142761589593 23.409897373393424 31.12279754169711 0 0 0
2354 17 1 9.311943364898065 25.89153203146258 18.19204460345019 0 0 0
2355 17 1 9.687595202132863 25.09421061742859 19.45339622828922 0 0 0
2356 17 1 10.725005726304547 25.86876705058853 20.36409575742963 0 0 0
2357 17 1 10.98200155234696 25.104106204978123 21.65353467354893 0 0 0
2358 17 1 12.114487929792434 25.742497912235546 22.43019913274671 0 0 0
5856 13 1 2.8711446892697614 11.182522754652071 34.53307729075847 1 0 0
2360 29 1 12.537151988173898 0.7115665133240366 17.03178917055914 0 0 0
2361 29 1 12.932587265533307 1.4905069148143213 18.222378394660836 0 0 0
2362 29 1 14.103660720157693 0.7693922394524871 18.910487702285344 0 0 0
2363 29 1 14.49266286676123 1.384643535759815 20.27802417374845 0 0 0
2364 29 1 15.767015277470103 0.8230531135476506 20.877073046629043 0 0 0
2367 29 1 17.6713761169836 1.4806488752747464 24.343505632322902 0 0 0
2365 29 1 16.038215220266522 1.3268862972907063 22.360997495154663 0 0 0
8676 62 1 11.318715076631001 16.512428325594204 32.773450801155946 0 0 0
3939 31 1 17.266599880903236 16.61929303591557 16.66641201932854 0 0 0
1543 43 1 16.254412862700708 18.54481579068394 33.502480396813766 0 0 0
1544 43 1 17.184668947910374 19.260794626602905 34.425127692817966 0 0 0
7690 1 1 3.5830049216986306 4.888722636770473 30.962163552108535 0 0 0
9183 61 1 0.5069058597849143 20.221239892747693 20.21137151644168 1 0 0
2807 30 1 13.754660630980688 5.247255581388841 19.339893977524987 0 0 0
2808 30 1 14.742507299978897 6.092194493006789 20.115381203159515 0 0 0
2809 30 1 15.175201968481089 5.341138748446507 21.37438792370717 0 0 0
2810 30 1 16.23513611075392 6.055458439510737 22.202392558145895 0 0 0
2811 30 1 16.774372314941726 5.177311149628753 23.363153237287563 0 0 0
4787 35 1 16.92416184401699 25.246427229272435 16.881338945356344 0 0 1
7235 52 1 4.501531977641959 1.0607789280652467 31.585239316665184 0 0 0
9189 61 1 5.381505274535836 20.502056194042677 26.20815339683312 0 0 0
4038 46 1 18.46944089045593 18.534110089388466 25.430819261070468 0 0 0
3030 30 1 13.076006254534116 6.028039934117905 18.25713649956933 0 0 0
6692 48 1 1.8212891477941944 20.421247709311103 32.37455501254874 1 0 0
7453 5 1 2.0491704404153595 2.628246982187063 22.089795930800634 0 0 0
9193 61 1 9.039200815127492 20.382203446787255 29.88237024958142 0 0 0
4030 46 1 12.27243045120538 18.559000827448482 17.510361890943663 0 0 0
3189 26 1 15.41962386835476 9.883270387987665 21.504732316599696 0 0 0
3190 26 1 16.835712929729876 10.107181515343877 21.9716271036502 0 0 0
3191 26 1 16.954390598826873 10.142384400996953 23.520435923972233 0 0 0
5411 40 1 0.5660526002910429 7.284828815574761 31.59545733523153 1 0 0
443 53 1 7.377604713606093 3.612183691621111 16.681320453646347 0 0 1
3861 31 1 18.05889510102312 17.50412650066516 17.63163427427808 0 0 0
7233 52 1 2.8707600315475923 0.8651680217209274 29.5988024446116 0 0 0
5412 40 1 0.931284581670047 6.766019201124313 33.024579643938566 1 0 0
8892 59 1 5.051302564817955 18.754777581564394 31.265939677796354 0 0 0
3412 26 1 15.215090139096526 10.160568037015217 20.023057684613 0 0 0
7237 52 1 6.235755374346302 0.9192353258621188 33.717843656717534 0 0 0
1318 12 1 18.200859991079618 16.983676088933688 30.622910143346893 0 0 0
3639 30 1 18.343326526428438 14.804582037004774 23.952234798857457 0 0 0
233 3 1 17.77703827156063 3.799037815623435 30.92538677682204 0 0 0
3637 30 1 16.629541146494297 14.738935907651305 22.127391055142706 0 0 0
3638 30 1 17.52136135132782 13.924032833407876 23.06576106724353 0 0 0
6695 48 1 3.6830381057238233 20.8022815367211 35.705225999788 0 0 0
9284 62 1 8.665472045653049 23.24359845613725 35.15522687677285 0 0 0
7465 5 1 11.276382610230568 2.833010399522505 34.3920216624836 0 0 0
3415 29 1 16.90803785109276 11.936242441574661 17.063304854520116 0 0 0
8677 62 1 11.994440269841688 15.75682747295924 33.9051204295476 0 0 0
9494 63 1 2.842536554492906 24.794151984329066 21.994872508094232 0 0 0
3859 30 1 15.015085977810644 14.952807058610126 20.21124262268114 0 0 0
3860 30 1 16.05796486003191 14.036720905101289 20.871817805036727 0 0 0
6250 42 1 2.6780174966612678 16.41570636716488 33.139071103723595 0 0 0
8131 56 1 5.725478094271145 9.22286596675654 32.532181478894145 0 0 0
7450 5 1 0.217755014444954 3.5807435014989992 18.866050259480822 1 0 0
4415 38 1 16.456987532469 23.85317070221245 22.39306098179459 0 0 0
460 3 1 15.643352129780194 5.840652350382032 32.92765884445988 0 0 0
463 3 1 17.81878784216488 4.982961397945082 36.09940916004754 0 0 0
9187 61 1 3.8902217235114755 20.54844988613299 24.288857799629913 0 0 0
3409 24 1 12.277103148605336 9.500566841661078 17.557716444194057 0 0 1
8888 59 1 1.8372575879245057 18.762208478229525 27.433991808367395 1 0 0
3856 39 1 12.757372311612935 14.288175159769917 17.121316349693593 0 0 1
4032 46 1 13.936976950822151 18.424929549994296 19.33733142122805 0 0 0
8505 56 1 0.826119795532544 14.133851909095707 25.126399682069103 0 0 0
8894 59 1 6.946428497429574 18.69907056327551 32.96670029166016 0 0 0
3029 30 1 12.214691081106048 5.21160605664778 17.282809837219773 0 0 0
5854 13 1 1.4194964907061203 11.196376779118838 32.65958669405872 1 0 0
8422 40 1 1.8737767888645513 12.44417246007623 20.981758142491017 0 0 0
7694 1 1 7.022771396441266 4.931980596581549 34.77615291476429 0 0 0
7072 23 1 3.633391253359277 25.219902064138715 35.69224887590127 1 0 0
5855 13 1 2.4469114531853666 12.003369379045921 33.379706892671265 1 0 0
1542 43 1 15.971108707671444 19.251800616581406 32.24043781666359 0 0 0
4410 38 1 12.73941205912083 23.172012854391866 17.145903929162277 0 0 0
4411 38 1 13.317724134625715 23.924302363471245 18.37002228915646 0 0 0
4412 38 1 14.233224847146671 23.12512972519383 19.253359202294554 0 0 0
4413 38 1 14.835480020153165 23.94917960428033 20.396890792585538 0 0 0
4414 38 1 15.563576217457104 23.109871979106842 21.437189016948135 0 0 0
8669 62 1 5.746482616103098 15.653940771577707 25.78109540420624 0 0 0
7454 5 1 2.7459497623830726 3.391388483357163 23.219731674433504 0 0 0
4417 38 1 18.062915535768674 23.7825455235223 24.358449054854418 0 0 0
1065 8 1 8.15609520017483 11.861198915643845 17.68778946854247 0 0 1
9276 62 1 1.8406400414170443 23.206304568806857 27.503659777770757 0 0 0
9192 61 1 8.275426616813306 21.148076219777874 28.744593603085058 0 0 0
4033 46 1 14.927493438522701 19.318459494741283 20.16396677829081 0 0 0
8671 62 1 7.332578567351273 15.646715682951802 27.745516097047656 0 0 0
9496 63 1 4.329374358742203 24.903531380704244 24.093305608543695 0 0 0
7234 52 1 4.246687230803147 0.38665100130302327 30.173077596043314 0 0 0
7068 23 1 0.835691934502012 25.091312373366733 31.380610094288286 1 0 0
9195 61 1 10.533573948142765 20.357552960732324 31.958709930106988 0 0 0
4253 6 1 17.918319584919086 21.641860285100293 17.61345222252651 0 0 0
9196 61 1 11.258938119309732 21.131685346259893 33.020983851116526 0 0 0
8130 56 1 5.064413777725003 9.868923445187086 31.342393013958404 0 0 0
9278 62 1 3.6028606019834517 23.229351771120687 29.244841863915575 0 0 0
9499 63 1 6.330978429794193 25.55112903608942 27.414832428964317 0 0 0
8662 62 1 0.30199204970135324 16.72278747694978 18.77114524575725 1 0 0
7687 1 1 2.0720556858337704 4.79736556280722 27.42550852810654 0 0 0
9497 63 1 4.97128632635278 25.687630993066772 25.29230639205573 0 0 0
7691 1 1 4.78225457188389 5.628601613267985 31.682158781733577 0 0 0
9506 63 1 12.115843075695722 25.165820657210773 34.04063137702522 0 0 0
8675 62 1 10.297470460618786 15.691034589693738 31.86626083450067 0 0 0
1316 12 1 16.737785494367866 16.777802823308296 28.487810101649373 0 0 0
9495 63 1 3.4506004281541904 25.67374470308503 23.106221512650876 0 0 0
8507 56 1 2.399011670823299 14.14850901016204 27.13219792037468 0 0 0
9502 63 1 8.955354548383823 25.064776710426912 30.061869559394687 0 0 0
8897 59 1 9.242442934382877 17.725129022584426 35.95431654137623 0 0 0
8508 56 1 2.557351379260631 13.825083343646376 28.605816067451954 0 0 0
7898 9 1 0.26458096570073086 7.753230930952106 19.200438871894335 1 0 0
8513 56 1 7.028270409340298 13.86905196709048 33.25969410075189 0 0 0
9505 63 1 11.345409132874968 25.979429496013488 33.01012217172588 0 0 0
7693 1 1 6.604117118718132 5.5834162703665005 33.489854212280996 0 0 0
3031 22 1 17.98360372980175 8.02442468506907 17.783018770567008 0 0 0
8423 40 1 2.388647134842057 11.606911520866701 22.152409666671677 0 0 0
1750 43 1 2.881038399875747 19.292963304365955 16.925670197256714 0 0 0
1160 9 1 17.820388188089105 14.000156900525743 36.25016640453285 0 0 0
9198 61 1 12.786442967678322 21.157653818203908 35.01938627980704 0 0 0
8666 62 1 3.1430964884624664 16.626337944894384 23.038233474795152 0 0 0
6251 42 1 3.2316594802837413 15.680417546003572 34.36077989071599 0 0 0
4034 46 1 15.608022116941255 18.518898939535553 21.30854569494814 0 0 0
7069 23 1 1.8203980976322762 24.379648775454218 32.278026861200914 1 0 0
6694 48 1 3.416120614165031 20.26954864194896 34.311710796259106 1 0 0
9283 62 1 7.6952117060694185 22.51780902857496 34.28992256397231 0 0 0
8891 59 1 4.556627363793409 17.908060754031155 30.1997103635468 1 0 0
1157 9 1 15.925535585858965 14.692011361238194 32.88427509308373 0 0 0
446 3 1 9.539303778154027 2.618496483535417 19.796318941125282 0 0 0
4031 46 1 13.209000314721287 19.334831702972014 18.402208032829304 0 0 0
2128 63 1 4.595140767870358 23.656412926371804 18.748885587539977 0 0 0
9504 63 1 10.556310793526988 25.102891843497538 32.03560090933935 0 0 0
9492 63 1 1.288635995392943 24.94927214759521 20.034750271744283 1 0 0
9493 63 1 2.1861510368017503 25.711231840330527 20.958934445720388 1 0 0
8512 56 1 5.576740422045387 13.668980485282544 32.769678111048506 0 0 0
7455 5 1 3.7342335770870765 2.540056912788899 24.029586299405203 0 0 0
7456 5 1 4.749181345368139 3.4119770168939265 24.854819831266425 0 0 0
7457 5 1 5.176633167738224 2.5863079464716754 26.099485057476333 0 0 0
7458 5 1 6.269202522958193 3.1153681637597415 26.982818975833922 0 0 0
7459 5 1 6.4349885044348 2.5604045833658735 28.406962147209363 0 0 0
7460 5 1 7.699205327259017 3.18014928969009 29.00171244523773 0 0 0
7461 5 1 8.02348937179861 2.6844555899352396 30.357995816895176 0 0 0
7462 5 1 9.298705512534593 3.269120566989703 30.90729417672361 0 0 0
7463 5 1 9.494618062558377 2.9112075462407905 32.381574165429754 0 0 0
7464 5 1 10.928549540929259 3.152127928462718 32.91148623585204 0 0 0
8509 56 1 4.005879164791194 13.897669016774374 29.10071003353205 0 0 0
8420 40 1 0.2071014000793231 12.377606656341998 18.969817395984013 0 0 0
7914 9 1 12.627381363264684 7.680522754473889 35.060909859263745 0 0 0
9186 61 1 3.2822944314151945 21.149162363575964 22.99750744263311 0 0 0
8889 59 1 2.8145043412260424 17.893059224077838 28.23774172825735 1 0 0
9498 63 1 5.870170923635277 24.83527527359281 26.16605521497801 0 0 0
1528 12 1 7.200458810581893 16.871731397858426 16.847201871520085 0 0 0
9188 61 1 4.985652465931853 21.309483616196317 24.980165188506113 0 0 0
9279 62 1 4.493779579990847 22.509555202835163 30.22390435962751 0 0 0
2352 16 1 7.5991787485909335 25.757831781102592 16.318625165307882 0 0 1
779 47 1 17.99919136146896 9.451687646170202 36.06948141580794 0 0 0
2805 33 1 18.41361708996244 3.1579135904032203 19.01237068003254 0 0 1
8896 59 1 8.309828854982557 18.570642427548 35.043695517230425 0 0 0
8511 56 1 5.464343870406029 13.898958564905744 31.21325189063393 0 0 0
5029 64 1 0.8608384768056108 2.1193721801636842 32.77202907860257 1 0 0
5030 64 1 1.6281535981860222 3.090915243785527 33.77925429747616 1 0 0
5413 40 1 2.0976102980624813 7.45989481493928 33.70749812195514 1 0 0
2366 29 1 17.28714672497799 0.7438294385073414 23.06595191830108 0 0 0
9197 61 1 12.295423271869186 20.384858359050096 33.82678092891338 0 0 0
4035 46 1 16.547793349776565 19.387134164095386 22.176012241832424 0 0 0
8435 40 1 11.544985182560069 11.389251251555157 34.1314363274939 0 0 0
7902 9 1 2.964724127442527 7.696393943039468 23.407924714032468 0 0 0
7903 9 1 3.319795551731853 6.940547776435341 24.671007753914495 0 0 0
7904 9 1 4.586012379191982 7.4731221021167995 25.306903097924057 0 0 0
7905 9 1 4.879767973080281 6.927478476481452 26.679924949289816 0 0 0
7906 9 1 6.158776541145562 7.652216334589958 27.231900211810796 0 0 0
7907 9 1 6.915448219951487 6.867539155634641 28.27123493272629 0 0 0