LAMMPS data file via write_data, version 23 Jun 2022, timestep = 11112117

8487 atoms
2 atom types
8471 bonds
3 bond types
8455 angles
3 angle types
8439 dihedrals
3 dihedral types

0 36.89775039 xlo xhi
0 26.67072 ylo yhi
20.824321326487322 215.92728307352425 zlo zhi
0 6.138363991798922 0 xy xz yz

Masses

1 14
2 15

Pair Coeffs # lj/cut/omp

1 0.0914 3.95
2 0.1947 3.75

Bond Coeffs # harmonic/omp

1 449.5 1.53
2 449.5 1.53
3 449.5 1.53

Angle Coeffs # harmonic/omp

1 62.0967 114
2 62.0967 114
3 62.0967 114

Dihedral Coeffs # opls/omp

1 1.411 -0.271 3.145 0
2 1.411 -0.271 3.145 0
3 1.411 -0.271 3.145 0

Atoms # molecular

8283 62 1 6.441536299102774 26.249617228083327 36.07193992391755 0 0 0
2363 34 1 13.327882593843732 1.6255186236826613 25.10384317301272 0 0 0
3142 27 1 17.763648960247075 12.667218429000243 25.521063380902067 0 0 0
7317 16 1 1.478417752288912 15.233854572252616 34.48179098209411 0 0 0
1162 13 1 0.3676610670907014 14.374539843706243 20.900381940816153 0 0 1
291 1 1 18.704868750096363 3.753830702334408 39.599210856326934 0 0 0
423 54 1 6.901370034875163 6.372277351035168 30.522870150738044 0 0 1
1908 17 1 1.7954677576021552 23.350031359717114 23.038496378316253 0 0 1
3719 9 1 10.444953043569344 19.608361730434524 21.80080072970003 0 0 0
8284 62 1 7.8049528298752335 26.1708942917032 36.78239749896086 0 0 0
901 8 1 6.083063992676943 13.326539293649624 21.816191456355593 0 0 1
2131 19 1 6.475441603034179 25.785973861168177 23.476436560916508 0 0 1
4034 15 1 16.512567191026733 25.457676282528592 23.829765901899925 0 0 0
3427 58 1 16.180803012449434 16.768022865199544 23.402237185039194 0 0 0
6878 46 1 1.279294302642793 5.7657927517673135 35.844766528633784 1 0 1
2596 22 1 16.134134163674478 6.314163127766205 29.403988557637796 0 0 0
637 6 1 9.804994316702711 8.092573317850963 28.432919240140315 0 0 1
3122 25 1 12.121018481512552 10.070037389905368 24.41042453527189 0 0 1
7571 12 1 8.265347805616557 17.38661026593438 38.24034456291704 0 0 0
6995 53 1 0.9911444312577935 10.829631428438605 34.161189021573016 1 0 0
4017 34 1 14.376053011901142 24.230604044806167 28.1126820648012 0 0 0
7 3 1 6.099888036860256 1.4033305816699606 28.8607103285617 0 0 0
276 1 1 7.14719841448212 3.493892129692725 24.26346202490274 0 0 0
907 8 1 10.219916969884327 12.897066185126276 28.109319311105445 0 0 1
7267 5 1 1.662638967791875 12.448395400768142 29.173838736120047 0 0 0
1391 12 1 8.810298314772838 17.794983377621158 25.922036103325603 0 0 0
3503 9 1 16.119474561622557 20.18031050250665 30.16270339538162 0 0 0
1388 11 1 6.736266934916837 16.637634726937872 22.809408853025175 0 0 1
8276 62 1 1.8056549017183747 25.44856574176818 28.425590622868317 0 0 0
8274 62 1 0.22827400896901548 25.141085443414752 26.335313357400494 1 0 0
2132 19 1 7.576158461501236 26.40420268620755 24.38843868225803 0 0 1
3418 29 1 11.980850940471417 15.061486798316952 24.92549809419232 0 0 1
861 7 1 6.261459831644901 10.42152720515552 28.11415121433845 0 0 1
6996 53 1 1.3063943549483503 10.122444552104156 35.49974902434541 1 0 0
8282 62 1 6.321535889278211 25.91564915966276 34.58084665267203 0 0 0
6631 51 1 2.9220531315521647 4.49918507810442 31.38804573492304 0 0 0
7838 60 1 3.4496370680124393 21.953740794006208 32.69199431595966 0 0 0
415 54 1 1.0338015426839273 6.075843218630457 22.297576259115107 1 0 1
2133 19 1 7.994278551393695 25.58819424190486 25.653776287764543 0 0 1
6414 62 1 3.9600349914228796 2.2737283967297217 38.71409872631566 0 0 0
1907 17 1 1.2300403948025094 24.147584278432376 21.940342359018167 0 0 1
900 8 1 5.353750967210156 12.458387335454445 20.82932919480359 0 0 1
632 6 1 6.702140776889391 8.014114722995476 22.92138211070082 1 0 1
3799 34 1 18.413168621939427 24.18782559606149 34.2645810034017 0 0 0
954 10 1 12.071651843019346 14.19645017576505 37.656911065454885 0 0 0
8 3 1 6.8108814677109795 2.2537137785714427 29.988896863104113 0 0 0
7562 12 1 1.6228297296862133 16.404524566230005 28.871276932397663 0 0 0
859 7 1 4.830841534578414 10.864733577312874 26.141109854200522 1 0 1
2376 21 1 16.9371211022469 4.0605039849678315 24.61904164059629 0 0 0
3123 25 1 12.720584508008546 10.800769790331909 25.565538775319254 0 0 1
3141 27 1 16.44818237575627 12.392136944950252 24.933521274146656 0 0 0
385 5 1 11.010494249788813 6.209486933917188 36.94586965007905 0 0 0
1601 14 1 5.766185399189887 19.97394853092221 28.065634465030687 1 0 1
3027 23 1 14.578526306404417 8.639012094110837 21.61397923672885 0 0 1
1912 64 1 4.798922830672937 23.48968220044237 27.30065462093263 0 0 0
643 21 1 13.801379419801314 8.181536502160284 34.97349877633918 0 0 0
420 54 1 5.179845211843083 6.068061718822405 27.154621217084685 0 0 1
2592 22 1 13.33759974418899 6.281811763771939 25.02619445497552 0 0 0
1648 38 1 11.25072954687891 21.823419996488123 30.284158082988938 0 0 1
857 7 1 3.3407968424418844 10.696562065426617 23.94013757231491 1 0 1
1598 14 1 3.456958402205521 19.150549088475138 25.08479635316326 1 0 1
3 3 1 3.388688718973428 1.3068780289597102 24.643808547832407 0 0 0
6637 51 1 7.3525082125878205 4.068756017634996 37.87560402440863 0 0 0
4013 52 1 11.542826710197819 24.10373652783141 23.9392159910527 0 0 1
904 8 1 7.9340394907399325 12.133681463125516 25.15509567494011 0 0 1
8279 62 1 3.2067266861676638 26.000246366554855 32.02055717197881 0 0 0
4032 15 1 14.928094551354395 25.67116157398718 21.85121508834923 0 0 0
6879 46 1 2.309948761429646 6.54100212682069 36.65563601803387 1 0 1
290 1 1 17.257951994340587 3.747450712770017 39.052510394485616 0 0 0
1921 63 1 16.718920951682563 25.789709466025467 38.23905289590786 0 0 0
1607 14 1 9.83812914040665 19.729901918656136 34.64493832304299 0 0 1
635 6 1 8.414046296996021 7.658212974923388 26.30868170537536 0 0 1
1387 11 1 5.9164366271177915 17.470622838384546 21.817235710376565 0 0 1
3797 34 1 17.156229829143037 24.18121067328501 32.28585763519979 0 0 0
1651 38 1 13.928233644493814 21.401161882399123 33.077473111505384 0 0 1
1649 38 1 12.658170300991618 21.61807983162436 30.780356428108348 0 0 1
2143 34 1 16.511039358759678 1.7728204435507775 29.104097840397788 0 0 0
6411 62 1 1.6825835959338988 1.6354211606077087 35.607809611990916 0 0 0
644 21 1 15.184325894336062 7.954720266320803 35.56825424467696 0 0 0
645 21 1 15.332122582766322 7.761366325859325 37.07558746133291 0 0 0
646 21 1 16.772330548441165 7.680108780486392 37.42512355642092 0 0 0
647 21 1 17.06426164714013 7.887991210695047 38.95242096167457 0 0 0
9 3 1 7.564753287430925 1.3215061418378529 30.936049771381725 0 0 0
3782 20 1 14.225515134273373 21.595047408632464 21.55852916360647 0 0 1
3348 28 1 17.19538616368428 15.554513645232104 32.11954181533915 0 0 0
6628 51 1 0.7598149453968269 3.2925660436448907 28.101003945028843 0 0 0
289 1 1 17.20394167656179 3.6703099812857265 37.526010196787134 0 0 0
3794 34 1 15.626711455777818 23.88018723692443 28.784411860433064 0 0 0
285 1 1 14.232804713252515 3.964573347460591 33.356317813827836 0 0 0
1698 64 1 11.985174092560143 23.33051062630099 37.46890112861311 0 0 0
1906 17 1 0.24490729696252858 23.46765534606404 20.996341400613606 0 0 1
3036 18 1 15.611761272402028 10.661026709991742 29.693071708110224 0 0 0
864 7 1 7.435606924865797 10.032349444618587 31.856457015672135 0 0 1
2141 34 1 14.931294239165341 1.553403509226825 26.979743939907976 0 0 0
1179 12 1 17.204345370958247 17.601862482985773 38.82133111420082 0 0 0
280 1 1 10.13024264685106 3.7886675095036337 28.308823239091673 0 0 0
6 3 1 5.2998177716256 2.248623462687016 27.925113917254574 0 0 0
3419 29 1 13.178460915182775 15.465305250393605 25.756021581467994 0 0 1
1909 64 1 2.566226739631785 24.22388295062978 24.02176196411483 0 0 0
1643 38 1 8.290282960985449 21.528567447750834 24.639732493425768 1 0 1
7272 5 1 5.795809356259837 12.60483860774803 34.252625149037556 0 0 0
5 3 1 4.671110560524841 1.4074132439575002 26.807899532318313 0 0 0
1700 64 1 13.450882116945067 23.266685458291917 39.559434618751325 0 0 0
956 10 1 13.534545732985492 14.154306100122948 39.709909580841405 0 0 0
3415 29 1 10.55579982600288 15.350848178131027 21.280620383378036 0 0 1
909 9 1 15.522100522576684 12.447070877893774 35.37113338563587 0 0 0
910 9 1 15.89427869528561 12.940687378778426 36.802659700484426 0 0 0
911 9 1 16.916796788665394 12.146220572285031 37.623795020171784 0 0 0
912 9 1 17.65020464544056 12.923785427464937 38.63267548867174 0 0 0
631 6 1 5.455357772065223 7.4622019433037075 22.239203339883407 1 0 1
2360 19 1 10.483243989742562 1.2016755872636655 22.58620301460097 0 0 1
1647 38 1 11.14250125629731 21.58361203379302 28.80121368985994 0 0 1
1646 38 1 9.683697292758657 21.547746222374652 28.32837456371218 0 0 1
2 3 1 2.199254767195985 1.852668757223033 23.825681033199757 0 0 0
3426 58 1 15.095542389625328 17.563914665801377 22.605521681913352 0 0 0
384 5 1 10.52163733443902 5.491514135215297 35.63551881124765 0 0 0
1390 12 1 8.20618564685241 16.87117633099798 24.926545933604338 0 0 0
1640 38 1 5.579732948787855 21.932040724884356 21.838899117544564 1 0 1
6880 46 1 3.1522740385573043 5.721045384652659 37.574857467482985 1 0 1
14 3 1 11.2679103586549 1.9013365710270305 36.08901338798732 0 0 0
943 9 1 12.649947768753153 13.056714489131053 32.5994130697179 0 0 0
944 9 1 13.76408846362101 12.358359178150412 33.395339739961855 0 0 0
945 9 1 14.35222646949754 13.096949989572582 34.63914403745727 0 0 0
946 10 1 6.491556591548966 14.760611419013177 29.206584369991234 0 0 0
947 10 1 7.510498189453029 15.458292575298644 30.11468429236914 0 0 0
948 10 1 7.755761775525365 14.737903991804425 31.44097401688322 0 0 0
949 10 1 8.97113615885089 15.157636317301435 32.20582931163827 0 0 0
950 10 1 8.999825510902834 14.665928185608221 33.65426584253185 0 0 0
951 10 1 10.079484306378298 15.383326000115497 34.50032061453567 0 0 0
952 10 1 10.465642419683919 14.497603806596416 35.69078864255884 0 0 0
7607 57 1 3.6526998673880158 19.11264332332456 37.49141535424209 0 0 0
3028 23 1 15.950235832382582 8.21166566283002 21.953243275304335 0 0 1
3349 28 1 17.732622257737074 14.705658973345209 33.3022235800305 0 0 0
7561 12 1 0.969035564069338 17.237452871157377 27.764242538457978 0 0 0
7839 60 1 4.281549637780287 21.182043516899636 33.73249666111195 0 0 0
2588 22 1 10.073075714072637 6.390836821728887 21.16407794852084 0 0 0
1597 14 1 3.078111342081962 19.8739684832001 23.791480920684595 1 0 1
902 8 1 6.645699938504441 12.434748299854633 22.924575798356216 0 0 1
284 1 1 12.978643277882725 3.5431959466151426 32.656801704578605 0 0 0
2129 19 1 5.265495105101183 25.7862178533361 21.417889628598566 0 0 1
7277 5 1 8.3021357519412 12.756816200340936 40.13524597232864 0 0 0
7270 5 1 4.438374192143372 12.713571360375681 31.928835498369413 0 0 0
1166 10 1 3.302479764272482 14.548498454339006 25.096574930677974 0 0 0
1167 10 1 4.573986888236393 15.088351450653223 25.75746996612048 0 0 0
1168 10 1 4.952290240380361 14.65055803829474 27.225434211274393 0 0 0
1169 10 1 6.316575537743333 15.14047800066247 27.782874411826718 0 0 0
1170 12 1 10.840390717955126 16.87283372257889 29.26040583633562 0 0 0
1171 12 1 11.867107801737738 17.50663346135192 30.17170029605085 0 0 0
1172 12 1 12.287270784212403 16.719472066462146 31.41907622507298 0 0 0
1173 12 1 13.023923267965577 17.645455198048996 32.41570290707757 0 0 0
1174 12 1 13.921672788114206 16.939066637709548 33.422518843307856 0 0 0
1175 12 1 14.386011118315343 17.81285645581149 34.593216177106726 0 0 0
287 1 1 15.600092614694937 3.856972707958793 35.44629577766645 0 0 0
2593 22 1 13.564311478412423 5.75157546615557 26.457531806410515 0 0 0
2134 19 1 9.025783472895661 26.282966212416987 26.639938232267756 0 0 1
906 8 1 9.618415434123927 12.034062574799416 27.082881818133334 0 0 1
3037 18 1 16.069326292302744 9.941488996453279 30.945039605558087 0 0 0
283 1 1 12.926650862760331 3.78262783879093 31.115284482873548 0 0 0
638 6 1 11.138654583513546 8.514130899815344 29.038015564441878 0 0 1
3039 18 1 17.376401742912503 10.039830631665264 33.12414019643692 0 0 0
281 1 1 11.500700560599718 3.8933670270375504 28.960712626065344 0 0 0
636 6 1 9.743021532813883 8.231310605236686 26.926901523991404 0 0 1
1392 12 1 9.458324146751886 17.04928566101492 27.11117494269938 0 0 0
1393 12 1 10.262711061157898 17.802562522822047 28.228025629075457 0 0 0
3425 58 1 14.961718346466983 17.005242105585722 21.195393809945053 0 0 0
1604 14 1 7.979171200241672 18.9690646219627 31.336804747628022 1 0 1
1644 38 1 8.236874127344816 21.387712004924456 26.178163457161205 1 0 1
6958 41 1 2.5070544829098464 8.608237651099351 31.43276415739549 0 0 0
418 54 1 3.755622554228969 5.786213926816566 25.121418409231673 1 0 1
4012 52 1 11.288618765745198 23.537081890002487 22.563986129723755 0 0 1
1689 16 1 18.10713521746258 21.773690201151084 39.461880395635944 0 0 0
1165 10 1 2.8983845735852447 15.191738788121475 23.76047139594631 0 0 0
3421 29 1 14.481392101696636 15.430189179603474 27.869983270197555 0 0 1
2598 22 1 17.560191133760473 5.980424611140306 31.467909470108808 0 0 0
6410 62 1 0.821908754215258 2.264873658436518 34.51317298815252 0 0 0
1602 14 1 6.544359626229603 19.05273947375604 29.017448969371877 1 0 1
8057 45 1 1.9996651434635968 24.12937634231729 36.33489175558352 0 0 0
13 3 1 10.776218210708253 1.1819717572613202 34.89442355672222 0 0 0
2599 22 1 17.53197647786707 5.973909516023452 32.99178033136636 0 0 0
6415 62 1 4.372176642796305 1.4204310635652113 39.89530574085644 0 0 0
7568 12 1 5.8945576550565 16.763718283544907 35.056152231881185 0 0 0
7563 12 1 2.4829985280568208 17.321821823550202 29.80549683999262 0 0 0
8278 62 1 3.3555652223902315 25.924386824632833 30.496942423803883 0 0 0
1176 12 1 15.065089940609434 16.97695924379797 35.66407670582541 0 0 0
7565 12 1 4.218512777282832 17.468075255705866 31.750404685203744 0 0 0
856 7 1 1.937233996143621 10.284832997443369 23.515531285053708 1 0 1
854 7 1 0.3632509323728897 9.938226290314288 21.517724989559436 1 0 1
3785 20 1 16.886778800674072 21.92322979869623 24.320092791331845 0 0 1
424 21 1 18.505807936953445 7.956515296692211 39.31559326907811 0 0 0
6633 51 1 4.400484399731521 4.3633315453811345 33.50046109936946 0 0 0
6999 53 1 3.543154706141175 10.959866813764517 38.38581301146809 1 0 0
6966 41 1 8.138780403777824 8.373901193070898 39.927280759536096 0 0 0
3798 34 1 18.446879089421124 23.70981017624646 32.79850854808464 0 0 0
3795 34 1 15.733505680586056 24.37207058309844 30.206395715472247 0 0 0
2359 19 1 10.179266595132075 1.9346185254328345 21.22935628555704 0 0 1
3029 23 1 16.15777722503134 8.709362662286855 23.408813666597162 0 0 1
3350 28 1 18.733579369466597 15.353224209877524 34.24701327219755 0 0 0
7842 60 1 6.880498872324461 22.109608240459085 36.55760681603962 0 0 0
3038 18 1 17.206730823612606 10.618657472554874 31.744525774746634 0 0 0
1605 14 1 8.42291546884928 19.75453164316172 32.56807089410827 1 0 1
3382 28 1 14.827887448428779 14.824563568210484 29.25305745138286 0 0 0
1654 38 1 15.418651775739328 21.56184239798944 36.72276010785754 0 0 1
2374 21 1 15.442440740290419 4.105426158363636 22.605480001081116 0 0 0
1 3 1 2.02467436183941 1.2994263445153453 22.421127521120756 0 0 0
4035 15 1 17.729717948102184 25.938912903308978 24.617235279276645 0 0 0
1692 64 1 7.916639021814984 23.64316118316849 31.146977597482007 0 0 0
1693 64 1 8.778539747131447 24.305133845504116 32.14424575770035 0 0 0
1694 64 1 9.1059444464452 23.389738349447047 33.30200992943922 0 0 0
421 54 1 5.236899159529367 6.083966358190672 28.67276056847491 0 0 1
860 7 1 4.907306084737561 10.159491371625656 27.566629120829493 1 0 1
2362 34 1 12.088462488454077 1.095034215269983 24.463952842656624 0 0 0
8285 62 1 7.8564557783552935 26.450927889021756 38.25173935025933 0 0 0
858 7 1 3.425290906087674 10.729348515056303 25.462370319402893 1 0 1
1645 38 1 9.628272821822735 21.271694992539704 26.72703835645777 0 0 1
7274 5 1 6.93676733436054 12.638754477192721 36.527024793742996 0 0 0
2597 22 1 16.105049433871756 6.049594182380767 30.87979083150661 0 0 0
7320 16 1 3.0587192904037264 14.639708763817865 37.944759976815575 0 0 0
7269 5 1 3.1444415966112524 12.356766994567584 31.198561395332767 0 0 0
863 7 1 7.355566336922479 10.53573810975624 30.42054781540834 0 0 1
1603 14 1 7.2429817519723985 19.771788388559763 30.2432960137512 1 0 1
286 1 1 14.154782028224755 3.718386778929779 34.86100415732802 0 0 0
386 5 1 11.962955448063502 5.442788650015037 37.860977087735705 0 0 0
6629 51 1 1.3592089114005848 4.233999183759916 29.151490931916953 0 0 0
7271 5 1 4.479244065019812 12.500697038084212 33.499077374790375 0 0 0
416 54 1 2.2580866685532195 5.544166013657897 23.061612042883187 1 0 1
1913 64 1 5.898877797311622 24.33360340363625 28.02349307566835 0 0 0
1914 64 1 6.517703687424748 23.692655763151123 29.265127295774953 0 0 0
1915 64 1 7.582127993609138 24.567312379742983 29.99098967232748 0 0 0
1916 63 1 13.534046415645708 26.297727310335436 32.85961322489709 0 0 0
1917 63 1 14.031934651039963 25.35156078125214 33.93879827009404 0 0 0
1918 63 1 15.120851277098971 26.01086618319834 34.777053001480006 0 0 0
1919 63 1 15.231279024410547 25.63374833334155 36.21537341680654 0 0 0
1641 38 1 6.894059882868273 21.519855371625134 22.502287671419996 1 0 1
1606 14 1 9.263686500766465 18.8756593370678 33.485969356156545 1 0 1
8056 45 1 1.2953972677520067 23.21761202219297 35.39280899107285 0 0 0
3119 25 1 9.929300104974125 10.947852552333982 21.476764623188718 0 0 1
8277 62 1 2.0120919149305103 26.12445826726403 29.805088647648205 0 0 0
634 6 1 8.19698998432158 7.9659008863490905 24.86459952661992 0 0 1
3417 29 1 11.895438913773011 15.559625906062072 23.42362150870227 0 0 1
1687 16 1 16.793265457915204 21.557841326820814 37.397557352603506 0 0 0
10 3 1 8.49883223802053 2.1489279266582875 31.72935337366277 0 0 0
2135 63 1 9.712571730655679 25.500513056006167 27.739334187438008 0 0 0
2136 63 1 10.599092231904715 26.370265393121436 28.652193308974045 0 0 0
2137 63 1 11.391946956682489 25.567489113808502 29.661192307846463 0 0 0
2138 63 1 12.140592109090122 26.379645838529377 30.686696088989564 0 0 0
2139 63 1 12.667349930980276 25.55166294006435 31.832866260803808 0 0 0
7000 53 1 3.8153407535752617 10.505656863234485 39.82898535450099 1 0 0
3120 25 1 10.5144236941348 10.045720113754708 22.617242885415735 0 0 1
3428 58 1 16.48215980377193 17.306608047682555 24.79313975465666 0 0 0
2142 34 1 15.421922193235375 0.9966287442764082 28.36305127470763 0 0 0
3718 9 1 9.310967521843049 18.915592927750097 21.052227406104407 0 0 0
3506 9 1 18.33661699580876 19.167175788496408 33.226314887351705 0 0 0
3786 20 1 17.24114319566635 21.443031579980307 25.731898686958814 0 0 1
8280 62 1 4.545932074888874 25.688130169166495 32.679408248905894 0 0 0
279 1 1 10.203656767962402 3.813249313187148 26.763163715421662 0 0 0
3500 9 1 13.511213036554524 19.419684450935456 27.4594989215981 0 0 0
7321 16 1 4.11646489193738 15.284643620189128 38.76280866703877 0 0 0
1600 14 1 5.137134208418679 19.13877391732475 26.965473487366943 1 0 1
1611 15 1 12.68996365575401 19.548901376218797 38.9919778550334 0 0 0
6839 51 1 4.559857830362283 6.105639155100912 39.643178988202465 1 0 0
7604 57 1 0.7617195244069749 19.649310676198624 34.65270463098805 1 0 0
2591 22 1 12.22316753235371 5.573137360886386 24.258720262077574 0 0 0
11 3 1 9.075446540879597 1.229107584078201 32.77174326126017 0 0 0
6413 62 1 2.9042182864504533 1.6811368787451277 37.80674751586705 0 0 0
6959 41 1 3.860599034762679 8.478323424897042 32.039950979904944 0 0 0
1595 14 1 1.514770149452853 19.722674844044384 21.60883712211846 1 0 1
381 5 1 8.10908027744091 6.191898775995824 32.62854612516741 0 0 0
1608 14 1 10.545449045115062 18.903577973398907 35.7389427497854 0 0 1
277 1 1 8.60722025477395 3.4676627224415277 24.728201359711502 0 0 0
417 54 1 2.395648333809511 6.157514755388567 24.437407523895544 1 0 1
1653 38 1 15.337405582088483 21.59901456931502 35.19748677929719 0 0 1
639 6 1 11.131034490848586 8.147340200597931 30.54078175975672 0 0 1
1922 63 1 17.995254326930997 26.36839739480698 38.87604388756232 0 0 0
2375 21 1 16.52302937900474 3.3474340565222236 23.349587515508734 0 0 0
7268 5 1 2.9918610018614578 12.95975241067661 29.82515651844902 0 0 0
275 1 1 6.946253555827288 3.460080186495515 22.768429294823576 0 0 0
422 54 1 6.680976566744603 5.777377841269256 29.122778908109723 0 0 1
870 3 1 11.849600780725362 9.914216161558448 38.12639604225681 0 0 0
1178 12 1 16.550203409503204 16.82575174972149 37.71629855198186 0 0 0
1910 64 1 3.1742259013022975 23.41098019993244 25.208571111333512 0 0 0
6960 41 1 4.00221423662422 8.815712687792946 33.500967509626605 0 0 0
1389 12 1 7.433869968499465 17.542103284845293 23.835963228845912 0 0 0
3085 18 1 14.251970414533265 10.921550580265246 27.590993219364808 0 0 0
3086 18 1 14.531244947766892 10.040092608480231 28.7644236118572 0 0 0
6877 46 1 0.7063154947181179 6.531004127093179 34.66800325367092 1 0 1
7840 60 1 5.120527256092678 22.028187106343374 34.77029218474823 0 0 0
1642 38 1 6.9157763831368095 21.66183916516413 24.01802996954051 1 0 1
8281 62 1 4.857913940555834 26.160024733419387 34.061660393577604 0 0 0
15 3 1 11.499281260582336 0.9385199020994299 37.183319222538074 0 0 0
2378 21 1 18.40226521826836 4.095502565576457 26.766466442220903 0 0 0
382 5 1 9.13212840902306 5.418839747246458 33.478247644537454 0 0 0
1911 64 1 4.052478984171518 24.209425940324643 26.209476358233182 0 0 0
865 3 1 8.600600717997857 10.670653381241923 32.633917884883004 0 0 0
3429 58 1 17.751197934203482 16.94514859812938 25.60468215112006 0 0 0
3121 25 1 11.286456219870521 10.95502450316652 23.550065926295837 0 0 1
1177 12 1 15.703635762848151 17.724670784521503 36.77083896482017 0 0 0
3383 28 1 15.99886781509532 15.450288987278505 29.97989129982008 0 0 0
2589 22 1 10.657855928265464 5.631469864528794 22.356002335234336 0 0 0
905 8 1 8.70652829899373 12.838857563341518 26.21604748906877 0 0 1
282 1 1 11.645013107520112 3.453854845400137 30.428386066291125 0 0 0
6632 51 1 3.89272176448322 3.6668992576370143 32.21600157906659 0 0 0
224 3 1 0.9042665010717147 1.9425507548915046 21.5863661639672 0 0 0
3496 9 1 10.907847443716005 18.94615682755158 23.10138600994202 0 0 0
3497 9 1 12.061895979240674 19.69361625107166 23.797176885464978 0 0 0
3498 9 1 12.369529678994216 19.08581930501325 25.189628656904087 0 0 0
3499 9 1 13.198144225694866 20.044388246080473 26.090275265084358 0 0 0
6635 51 1 5.90296571016053 4.336595242361213 35.72650654854872 0 0 0
383 5 1 9.629268679850401 6.262474079623872 34.646550510609586 0 0 0
6997 53 1 2.1520346682079996 10.915049673540247 36.37933323434869 1 0 0
380 5 1 8.152832842508126 5.793481455706339 31.16417770387021 0 0 0
2594 22 1 14.870558721768283 6.02589565095842 27.21216616770656 0 0 0
3504 9 1 16.544792467227122 19.442037355184407 31.42419210015482 0 0 0
3796 34 1 17.115221354722028 24.006292480590396 30.75018754163834 0 0 0
18 3 1 14.147025948990564 1.6600405652236288 39.99078331293414 0 0 0
288 1 1 15.839838890902614 3.724621611138896 36.95890472016754 0 0 0
953 10 1 11.742875366854683 14.992620385090138 36.348699807296356 0 0 0
7566 12 1 4.685028998899902 16.72167444841986 32.976251731474626 0 0 0
7608 57 1 3.7540462877478395 19.676836205890837 38.90025964889462 0 0 0
278 1 1 8.770008108344443 3.7609635483619734 26.19752582810736 0 0 0
7836 60 1 2.0952694778579652 21.732343826610954 30.671562852100905 0 0 0
3030 23 1 17.463759980053556 8.393577298195021 24.113948835111756 0 0 1
7606 57 1 2.3524721068515664 19.56314636690118 36.71447323937868 1 0 0
3031 23 1 17.354250245456047 8.735417553324632 25.6335074402532 0 0 1
2144 34 1 16.443893375380206 1.3921038378543509 30.593491381589203 0 0 0
1652 38 1 13.97039342365383 21.526206339842755 34.586944931460245 0 0 1
3416 29 1 10.704819354635848 14.942499162224376 22.71664868416769 0 0 1
4014 52 1 12.909997171116672 23.80564383599977 24.459332470350773 0 0 1
6412 62 1 2.3349616372564928 2.5300024092180085 36.684198299799036 0 0 0
7567 12 1 5.429282914468123 17.684983692762085 33.93322463342048 0 0 0
1612 15 1 13.600477945908304 18.653667557097208 39.81610831571639 0 0 0
1650 38 1 12.606268337501199 21.444534833891325 32.287288763304105 0 0 1
3384 28 1 16.568046888494298 14.644433359217436 31.138318683352836 0 0 0
8060 45 1 4.416515539349011 23.36411315183997 39.37459013254558 0 0 0
1688 16 1 16.80431462464988 21.348873935545495 38.87873374454183 0 0 0
7833 60 1 0.5407622380412287 20.887361151465463 27.108470730193964 0 0 0
3505 9 1 17.640545425985756 20.098059994138215 32.289248336825274 0 0 0
3084 18 1 13.593592039559152 9.992995586633816 26.58312804523799 0 0 0
6838 51 1 3.7508385063081833 6.788095341389295 38.51127450935495 1 0 0
941 9 1 11.446267949183563 12.982542562467271 30.34267220399684 0 0 0
6955 41 1 1.1773618701008945 8.531126898441467 27.82402816085318 0 0 0
2590 22 1 11.813527455424373 6.41001228554607 23.027381640296596 0 0 0
7844 60 1 8.46184505440639 22.14070330032281 38.50109602297805 0 0 0
7841 60 1 6.106942220753047 21.25416880671223 35.56020398393032 0 0 0
6638 51 1 8.616131846584842 3.4398504558068406 38.462275527929705 0 0 0
6634 51 1 5.593400093009822 3.7961058861653694 34.32453091517769 0 0 0
1596 14 1 2.098921660588867 19.075621315055802 22.87531261171319 1 0 1
955 10 1 13.083228674964005 14.937663704693971 38.49382011186172 0 0 0
7266 5 1 1.2212207447960879 12.888222436973418 27.779070982499185 0 0 0
12 3 1 9.897719952979577 1.957191510368963 33.83673874197348 0 0 0
2595 22 1 14.773631016757935 6.127351986767232 28.706915863485307 0 0 0
7843 60 1 7.780378847958126 21.217074132288396 37.47246950396127 0 0 0
869 3 1 11.539476921271392 10.642436461944559 36.78457435938667 0 0 0
6964 41 1 6.8147988613072945 8.671708307336104 37.81464062413019 0 0 0
3501 9 1 14.550775548119338 20.150476992683398 28.1993545207473 0 0 0
7318 16 1 1.6518724444115764 14.73444411873746 35.86208695837743 0 0 0
7570 12 1 7.442381377257778 16.634892019500796 37.280899184392894 0 0 0
6965 41 1 7.957411734012697 7.945426637844632 38.50138880460398 0 0 0
3140 27 1 16.23629894372199 12.82062831271577 23.507864013855276 0 0 0
3138 27 1 14.796624731811013 12.633180465270014 21.44902337191547 0 0 0
7564 12 1 3.3776837992412094 16.596775212801123 30.831750882281078 0 0 0
4015 34 1 12.928278347107739 23.988974373337324 25.990654688027035 0 0 0
862 7 1 6.240205140135273 9.950207515030336 29.60110143665458 0 0 1
4036 15 1 17.882792352879925 25.551167970329605 26.10087542080951 0 0 0
4033 15 1 16.12758754887091 26.268599894139626 22.645148378100263 0 0 0
419 54 1 3.9054305779013743 6.374763581495912 26.559836411362046 1 0 1
3784 20 1 15.751366358231818 21.301292917974042 23.58412307570886 0 0 1
1697 64 1 11.291146314519635 24.150592801013126 36.43216757496535 0 0 0
2373 21 1 15.012328518485528 3.4831797690766044 21.331787001045605 0 0 0
274 1 1 5.466183277885464 3.4073861520627697 22.411139400076177 0 0 0
903 8 1 7.441798003850035 13.059498481446445 24.062519757317553 0 0 1
1599 14 1 4.103949869917371 19.872091711772597 26.21238189422298 1 0 1
871 3 1 13.13915502703055 10.504577189499013 38.70220862882948 0 0 0
633 6 1 6.9320946607253235 7.322004568652145 24.2560250788089 0 0 1
6957 41 1 2.572473702476373 8.37719177600466 29.93185412884444 0 0 0
1609 14 1 11.243687906446379 19.682646278005127 36.89943067865607 0 0 1
3783 20 1 15.471416095683606 22.058611486836323 22.2784996915376 0 0 1
942 9 1 12.395099275332397 12.254335864727048 31.341482428019066 0 0 0
4 3 1 3.7407701361330328 2.1695844708860963 25.81406305665495 0 0 0
7605 57 1 1.86836162580579 18.898403527459255 35.385233519540634 1 0 0
641 6 1 12.483092795225403 8.1248334323999 32.86185573217962 0 0 1
3139 27 1 14.950178401370863 12.297899412861545 22.898115157914443 0 0 0
855 7 1 1.7748151965303094 10.270152264684587 22.01792995883604 1 0 1
4016 34 1 14.316693913425574 23.801569994630626 26.65161991462744 0 0 0
2361 34 1 11.770300803925117 1.7678180114530009 23.136596200086558 0 0 0
1696 64 1 10.577801666395569 23.28391752257069 35.38984748643776 0 0 0
6639 51 1 8.884554963353155 3.8980007138384245 39.90047489957463 0 0 0
6956 41 1 1.1556336112863157 8.244577549639343 29.34867934842027 0 0 0
1920 63 1 16.43832798984251 26.30369164364058 36.8442042052565 0 0 0
7837 60 1 2.967389576727912 20.965906563061075 31.671913433367504 0 0 0
8059 45 1 3.8093137056530315 24.173169329781857 38.25824304762182 0 0 0
6630 51 1 2.372786514354698 3.6999057083023295 30.23642077553032 0 0 0
642 6 1 13.826993323677572 8.010332655041998 33.51225429719653 0 0 1
8058 45 1 2.6663909186823584 23.377245801115922 37.49850148538789 0 0 0
2140 34 1 13.69380233944571 0.9474108199547845 26.458070122448177 0 0 0
7569 12 1 6.813600063689923 17.432956491111376 36.13219460620782 0 0 0
7834 60 1 0.8812893845013037 21.653152817970014 28.352006698163382 0 0 0
17 3 1 12.970428915096376 0.9096662027174249 39.33679056343887 0 0 0
908 8 1 10.961865850335796 12.137191910039043 29.200235541008258 0 0 1
913 9 1 18.238299558995408 11.969358169440635 39.663754396257254 0 0 0
7835 60 1 1.8224359913638213 20.928181139653248 29.315783518154433 0 0 0
8286 62 1 9.131591600025164 25.956099360118873 39.04372464087234 0 0 0
7322 16 1 4.0108749132093235 14.865065485983441 40.29930232670087 0 0 0
1695 64 1 10.08478791374528 24.110150493813986 34.2321773659074 0 0 0
3787 20 1 18.415100827956028 22.030897644730704 26.45714902359937 0 0 1
7275 5 1 6.969310568332508 12.407875543932834 38.03387059478238 0 0 0
640 6 1 12.416208568214852 8.38788373201385 31.35925004023254 0 0 1
1163 10 1 1.6685352081411964 15.018777510235376 21.500796115964125 0 0 0
2145 34 1 17.61257765427025 1.8191006367555074 31.40506133722513 0 0 0
867 3 1 10.071204447082785 10.630557928964333 34.69448937046293 0 0 0
3420 29 1 13.1984929829019 14.985256021615474 27.221987121750303 0 0 1
7273 5 1 5.578307341762766 12.667735017306846 35.78535887748094 0 0 0
7603 57 1 0.6430696286478688 19.070355796980696 33.218133014000344 1 0 0
6961 41 1 5.248682611121265 8.159510064411096 34.159054382059956 0 0 0
6962 41 1 5.539001528723282 8.720947881513728 35.534149527832774 0 0 0