LAMMPS data file via write_data, version 29 Oct 2020, timestep = 34000000

10752 atoms
2 atom types
10752 bonds
3 bond types
10752 angles
3 angle types
10752 dihedrals
3 dihedral types

-0.13124487248468242 30.999164872467325 xlo xhi
-0.11339912910072592 26.784119129067513 ylo yhi
-1.2032626400910829 284.2026226393631 zlo zhi

Masses

1 14
2 15

Pair Coeffs # lj/cut/omp

1 0.0914 3.95
2 0.1947 3.75

Bond Coeffs # harmonic/omp

1 449.5 1.53
2 449.5 1.53
3 449.5 1.53

Angle Coeffs # harmonic/omp

1 62.0967 114
2 62.0967 114
3 62.0967 114

Dihedral Coeffs # opls/omp

1 1.411 -0.271 3.145 0
2 1.411 -0.271 3.145 0
3 1.411 -0.271 3.145 0

Atoms # molecular

230 2 1 6.21988530026413 2.870095195045055 1.5636190163287922 0 0 0
231 2 1 7.075230927045923 3.024735230660463 2.8498141410539795 0 0 0
229 2 1 6.90454732773102 3.205320165406449 0.2579327823114572 0 0 0
232 2 1 6.237328830953288 3.1747126264347294 4.114662541592195 0 0 0
4 1 1 3.0658860754898187 0.7100486780387251 3.0641757891200436 0 0 0
454 3 1 2.1266038312141564 4.832511578361464 4.539596900215168 0 0 0
452 3 1 1.974164053155079 5.026877308482203 1.9735891111948232 0 0 0
228 2 1 5.962273841245527 2.9670421330596706 -0.9291230995870187 0 0 0
2 1 1 2.799230029561327 0.7853085214226975 0.4985496178396511 0 0 0
450 3 1 2.2057029019590986 4.964011264273204 -0.6875003910607193 0 0 0
5 1 1 2.3665173926306187 0.6341581509406969 4.406482722684478 0 0 0
3 1 1 2.1583145048342605 0.39449225987132297 1.851152508726455 0 0 0
1 1 1 1.937078392146263 0.7256657576323696 -0.7618256141584787 0 0 0
453 3 1 2.319767492923136 5.723417659190732 3.2641152411371674 0 0 0
451 3 1 2.3358400917363142 5.717129077419524 0.6412375674124033 0 0 0
6 1 1 3.265898223287388 0.9070405731025717 5.614035466555662 0 0 0
455 3 1 2.456157730877333 5.695480157411337 5.6989815987548225 0 0 0
233 2 1 6.987286678251479 3.043144528910409 5.442656049773623 0 0 0
2693 13 1 10.5225536374088 1.2928357414350407 4.2903980625475375 0 0 0
2691 13 1 10.089212482696915 1.4120078012804684 1.6669794892022067 0 0 0
2915 14 1 14.134029214976222 3.236826929465523 1.7235538022082362 0 0 0
2917 14 1 14.007744709183566 3.209608803553704 4.2611489386026955 0 0 0
2914 14 1 14.34524278071941 2.353978408017975 0.5060388535131648 0 0 0
2916 14 1 14.681280381690495 2.685466052956715 3.0540087150029622 0 0 0
2692 13 1 10.503169749413528 0.5935507555572542 2.9146221730419706 0 0 0
2690 13 1 10.140975513391965 0.4534277580440337 0.4726938293926908 0 0 0
2689 13 1 10.16437009688238 1.2528206682066745 -0.8464741397242521 0 0 0
2913 14 1 14.013298570705093 3.15453693844734 -0.7727627918553616 0 0 0
3139 15 1 10.304214318603142 4.821633460589864 2.9189712926787497 0 0 0
3137 15 1 10.689198773758962 5.076099350402876 0.3166929129965008 0 0 0
3140 15 1 10.229996149262638 5.620857485325358 4.203154456390269 0 0 0
3138 15 1 10.036270160818427 5.5851016281888946 1.6112627135096926 0 0 0
3360 15 1 10.017071213684037 5.555771033598831 -1.0096305259388627 0 0 1
2694 13 1 10.746928847024067 0.43252781732306533 5.5232449642262695 0 0 0
2918 14 1 14.566773262792879 2.550044190633436 5.525480250869324 0 0 0
3141 15 1 10.347285742931648 4.911992278712238 5.547171991067306 0 0 0
674 4 1 5.866385895930627 7.112220303479881 -0.4021606623027676 0 0 0
678 4 1 5.989769012777224 7.0261681883150775 4.771236139458383 0 0 0
676 4 1 5.837280481375936 7.048641879644351 2.2069923373658646 0 0 0
677 4 1 6.606774296373654 7.4528372969746615 3.461959211375735 0 0 0
675 4 1 6.4441373491592095 7.59007674206073 0.8805592853162514 0 0 0
900 5 1 2.846854284209552 10.159342152209378 0.3031814978025713 0 0 0
902 5 1 2.9670501679581687 9.956366412225902 2.948549497530645 0 0 0
901 5 1 2.124615331654603 9.814232464952505 1.63707845408452 0 0 0
903 5 1 2.277535842839583 9.42974498132059 4.174722216953866 0 0 0
899 5 1 1.9895255935397205 10.238667867618924 -0.9287973085852343 0 0 0
1124 6 1 6.650097191012795 11.548699668727572 1.650452582129034 0 0 0
1122 6 1 6.5667741329321085 11.793598532328199 -0.9773139878392807 0 0 0
1126 6 1 6.429589451291425 11.749337558989025 4.123264913252602 0 0 0
1123 6 1 6.800491072291558 12.453802031209094 0.41678066270846204 0 0 0
1125 6 1 6.61230061501054 12.527283026696422 2.81395088057985 0 0 0
679 4 1 6.729970436666586 7.465708013789056 6.077852784589505 0 0 0
904 5 1 2.965325256961224 9.796522507914677 5.378374275727592 0 0 0
3364 16 1 14.518683422663983 6.945914031434637 3.3221816680345038 0 0 0
3362 16 1 14.289971028334278 6.957843400786174 0.8024742373721705 0 0 0
3365 16 1 13.996120321316827 7.649961015436934 4.605045779960976 0 0 0
3589 17 1 10.24897939549975 10.655255997656171 4.319051023820825 0 0 0
3363 16 1 13.858466349480773 7.640542483419807 2.087771428288995 0 0 0
3587 17 1 10.269828698343803 10.479901411503626 1.8236119760880993 0 0 0
3588 17 1 10.32362233691248 9.718903168862623 3.1300671505399578 0 0 0
3586 17 1 10.26877354789214 9.553235539487059 0.6182555692711842 0 0 0
3812 18 1 14.299188642589023 12.094342680063681 3.4164524947065704 0 0 0
3810 18 1 13.983771340854725 11.689823342224498 0.7943864574035153 0 0 0
3361 16 1 13.684367156492373 7.641491430590468 -0.3934571859811612 0 0 0
3809 18 1 13.734099042939317 12.47340819451432 -0.4746486956964113 0 0 0
3811 18 1 13.819859031916486 12.601898193594629 2.0558987159635604 0 0 0
3813 18 1 13.590770740138753 12.666725095808761 4.6517309380636656 0 0 0
3585 17 1 10.06102268974004 10.353238585019183 -0.6229001707809462 0 0 0
3590 17 1 10.54995125655176 9.89837201631592 5.610148483047488 0 0 0
3814 18 1 14.041153021825874 12.044152147523356 5.97063583957142 0 0 0
1347 7 1 2.638941531513665 14.003406837934518 1.733150760943194 0 0 0
1349 7 1 2.1274992239467942 14.150339688458846 4.322996881802088 0 0 0
1345 7 1 2.8142319394151305 13.766573776760222 -0.822613675154511 0 0 0
1348 7 1 2.8609726276402374 14.729339886133019 3.0853141704325093 0 0 0
1346 7 1 3.122564421907892 14.628750897808837 0.4108630644837221 0 0 0
1570 8 1 5.955109413235215 16.759075746062173 2.0748508030051984 0 0 0
1572 8 1 5.782249014823126 16.670478695954912 4.681600836118822 0 0 0
1571 8 1 6.660992589278628 16.57058547440932 3.4245125657457596 0 0 0
1569 8 1 6.734998837479648 16.668040383101925 0.7549329580937316 0 0 0
1797 9 1 2.2257842023277945 18.293805365029804 4.8371176008078445 0 0 0
1792 8 1 5.97970979792373 17.022864995370888 -0.5533397761629832 0 0 1
1795 9 1 2.43868976249573 18.37208511228797 2.213476984690514 0 0 0
1793 9 1 2.4823843044613194 18.289183979106816 -0.36820022667811836 0 0 0
1796 9 1 2.373556715983264 19.132877552080913 3.5836986161325726 0 0 0
1794 9 1 2.403539343680101 19.1646851474719 0.9028162674057958 0 0 0
1573 8 1 6.4967186431345585 16.47100839486579 6.004577589994798 0 0 0
4036 19 1 10.62791273496234 14.482486636006627 3.3252229347573827 0 0 0
4034 19 1 10.701313957413364 14.217287802965556 0.732187912388879 0 0 0
4035 19 1 9.963604686967734 14.59314879242328 1.9970931324947903 0 0 0
4037 19 1 9.74834246022988 14.696949841857025 4.508356800492854 0 0 0
4258 20 1 14.116821168681101 16.492782133326223 0.6951313122541369 0 0 0
4259 20 1 13.48878916018302 16.81339079858953 2.070777180895699 0 0 0
4261 20 1 13.547438479008104 16.68227132479535 4.581906023131384 0 0 0
4260 20 1 14.43281238710949 16.61040980557779 3.2932511794264316 0 0 0
4257 20 1 13.476377784160656 17.037744162248707 -0.5538800710209838 0 0 0
4482 21 1 10.605679547622605 18.857757060843234 0.6828080660823768 0 0 0
4484 21 1 10.611555382299082 18.60287634927961 3.285334507641049 0 0 0
4483 21 1 9.936046691691534 19.11733156468221 2.023425251029107 0 0 0
4481 21 1 9.753939210199967 19.32481163053535 -0.49881561735128865 0 0 0
4485 21 1 9.996055067214888 19.194461149973854 4.511819761970131 0 0 0
4033 19 1 9.942818669618083 14.659519214331791 -0.5350180566953249 0 0 0
4486 21 1 10.445985766738369 18.63766354327189 5.875026332354484 0 0 0
4262 20 1 14.283569985994726 16.522030009759334 5.93697918593262 0 0 0
2466 12 1 6.746160671424584 26.084659146056126 0.5128625785894589 0 0 0
2468 12 1 6.578533339520069 26.13104093324221 3.0474930495094084 0 0 0
2465 12 1 6.105127225807557 25.549568389311105 -0.7945724696299058 0 0 0
2467 12 1 6.032381957586222 25.51418425333926 1.7292047121770695 0 0 0
2469 12 1 6.107338009179906 25.450938373072155 4.329795760663945 0 0 0
2020 10 1 5.753496861942753 20.798125480336523 4.375068960848968 0 0 0
2018 10 1 5.924652098330863 20.68788205973344 1.8592372424999968 0 0 0
2019 10 1 6.699405517369557 20.937355827846552 3.160496026229401 0 0 0
2245 11 1 2.170791127024019 23.079583317856105 4.83176823751947 0 0 0
2244 11 1 3.068400834734327 23.487025075512612 3.6723491139091626 0 0 0
2242 11 1 3.080005292023119 23.462542707103694 0.944500131198506 0 0 0
2017 10 1 6.66743660325484 21.214502206099624 0.6846249565872429 0 0 0
2243 11 1 2.507504006292307 22.987991665308506 2.276192812742073 0 0 0
2240 10 1 6.05550236804085 20.801539420536464 -0.6371539152673255 0 0 1
2241 11 1 2.405711429965905 22.995242476178532 -0.35549794358564046 0 0 0
2246 11 1 2.9305629888200393 23.356462311135928 6.071092494681396 0 0 0
2470 12 1 6.623996501573937 26.034346062805632 5.647445592934362 0 0 0
2021 10 1 6.531629449379804 21.172945426426416 5.625826941962999 0 0 0
5153 24 1 13.4697920516953 25.62285604112163 -0.5812968422733098 0 0 0
5157 24 1 13.843938766948064 25.592851254480493 4.428690172945951 0 0 0
5155 24 1 13.865460396625565 25.582192078968205 1.9745324006707095 0 0 0
4706 22 1 14.609799960062746 21.009591614281412 0.8586696917644137 0 0 0
4708 22 1 14.807747760782576 20.967655218647835 3.445718506485928 0 0 0
5154 24 1 13.889921348120431 24.826609826928923 0.6528798937580402 0 0 0
5156 24 1 13.911582305429587 24.691008733815266 3.212217906256085 0 0 0
4707 22 1 13.895686462910259 20.976912764943116 2.2237776105928275 0 0 0
4929 23 1 9.518833617858322 23.63696319874571 1.7933648904696495 0 0 0
4931 23 1 9.542514005091949 23.631085914625444 4.322933511632752 0 0 0
4930 23 1 10.271445646575973 23.23735114410311 3.08205394425784 0 0 0
5152 23 1 10.278923844953566 23.332052452142563 0.4969648407617009 0 0 1
4709 22 1 13.972950291818274 21.22141612487804 4.697527906881369 0 0 0
4705 22 1 13.753432164764282 21.126730020575792 -0.3603335843097252 0 0 0
5151 23 1 9.744947690473309 23.84418867445067 -0.8586714876753707 0 0 1
5158 24 1 14.06682208950431 24.87705176458269 5.8053291352305525 0 0 0
236 2 1 5.9964032741837565 3.376966251887068 9.210158432663809 0 0 0
234 2 1 6.1048843086218145 3.0338181311709347 6.695336865990495 0 0 0
235 2 1 6.8644896567817755 3.4434964791535885 7.932065184516123 0 0 0
237 2 1 6.789647831903506 3.264876338567553 10.530944701519486 0 0 0
238 2 1 5.999732249404212 3.564238200777702 11.83317411032906 0 0 0
8 1 1 3.3956261578430142 0.9469067573856396 8.27562280303983 0 0 0
10 1 1 3.1669995348027578 1.1988048219632186 10.870749334646057 0 0 0
9 1 1 2.4647923898128425 0.8450564837241932 9.560177212847929 0 0 0
7 1 1 2.5459293716151716 0.7185447459809566 6.981036816175244 0 0 0
460 3 1 2.272014955492453 4.727169895700358 12.096825540958411 0 0 0
458 3 1 2.255911557809594 4.837981135313727 9.50679432469934 0 0 0
456 3 1 2.3805467699182774 4.9965716460160134 7.064906418723655 0 0 0
11 1 1 2.6470594340474842 0.40431517792898986 12.093917563468407 0 0 0
459 3 1 2.812134575103037 5.443382199952034 10.792634128225604 0 0 0
457 3 1 2.476209753757156 5.77954274525718 8.332247841393169 0 0 0
2921 14 1 13.785241593352142 3.1123482436064602 9.298416784117082 0 0 0
2919 14 1 14.014449332575024 3.1533963047177176 6.805861463542172 0 0 0
2923 14 1 13.709718670391432 3.2394445836736443 11.904414378860645 0 0 0
2695 13 1 10.531242623706373 1.2353791616233176 6.807635398656746 0 0 0
2697 13 1 10.281325415665272 1.234840520891727 9.347662463047104 0 0 0
2922 14 1 14.450198624266406 2.7815711436525747 10.616431604556244 0 0 0
2920 14 1 14.571240207732215 2.5614283907726714 8.082669003810349 0 0 0
2699 13 1 10.340855214780897 1.2568121589367882 11.94260829444625 0 0 0
2698 13 1 10.492368682561185 0.390155638344023 10.618668054142704 0 0 0
2696 13 1 10.588266909940538 0.4008889000469067 8.056785791661063 0 0 0
3143 15 1 10.489497261047088 5.07449347168288 8.107616231474337 0 0 0
3145 15 1 10.790077325310074 5.226813196529178 10.72400965537959 0 0 0
3144 15 1 10.325242041823808 5.914561319046062 9.396130058023038 0 0 0
3146 15 1 10.14775424686629 5.723572639468747 12.011365443950048 0 0 0
3142 15 1 10.303228162900904 5.803765205604214 6.816547429526777 0 0 0
1127 6 1 6.472126955300415 12.771117677334521 5.281734195148963 0 0 0
684 4 1 5.855786276106821 7.537526762238118 12.619588022277142 0 0 0
682 4 1 5.9231362236286085 7.5380329915267215 9.977952007328103 0 0 0
680 4 1 5.997714196327805 7.165094043685792 7.418073096785729 0 0 0
683 4 1 6.6960042596579425 7.794748532952981 11.287634703982832 0 0 0
681 4 1 6.603296447319504 7.864954134111786 8.655594462678613 0 0 0
906 5 1 2.951830436420255 9.736941345354253 7.9853529557391525 0 0 0
908 5 1 2.7469294090209746 9.731815241025428 10.525856375439 0 0 0
907 5 1 2.0381696322904332 9.62678259376822 9.230449648839459 0 0 0
905 5 1 2.222843366389937 9.472645547230556 6.637886807798466 0 0 0
909 5 1 1.7275759775785695 9.662857657717645 11.687870466429013 0 0 0
1128 6 1 6.490871741337243 11.956905078840428 6.592523737332073 0 0 0
1130 6 1 6.316570014748579 12.001705602916532 9.179136238975483 0 0 0
1132 6 1 6.087161425240939 11.911460489014068 11.73725917241997 0 0 0
1131 6 1 6.133285252175905 12.843819455067239 10.498380502446897 0 0 0
1129 6 1 6.341416555358801 12.81102483027246 7.904807952677222 0 0 0
1355 7 1 1.9086337969392093 13.851792058258557 12.066142784665754 0 0 0
685 4 1 6.45070775593549 8.066995100344505 13.909273385573691 0 0 0
3366 16 1 14.347251691169618 6.9783290818422845 5.935144487196025 0 0 0
3368 16 1 14.347980030224614 7.488386121880047 8.402775616858518 0 0 0
3370 16 1 14.308136320255713 7.613520261305158 10.817391266073539 0 0 0
3371 16 1 13.706606902726065 8.070762146018046 12.123735479978722 0 0 0
3367 16 1 13.712220263366296 7.82486568545488 7.07247909039018 0 0 0
3369 16 1 13.603893950902982 8.11027610580143 9.531168885549596 0 0 0
3593 17 1 9.892209963124918 10.479841547010329 9.386269043525061 0 0 0
3591 17 1 10.237777498249873 10.736827908072149 6.85760121186148 0 0 0
3592 17 1 10.292427824146584 9.857719546980393 8.066170277271537 0 0 0
3594 17 1 10.08763498949154 9.611084859521645 10.632026741637217 0 0 0
3595 17 1 9.785816009851809 10.39704441963726 11.889673957692237 0 0 0
3816 18 1 13.874994460725372 11.972093736882027 8.537726209959255 0 0 0
3818 18 1 14.124346662633847 11.841286157340715 11.071868318800156 0 0 0
3815 18 1 13.24116534452947 12.504411203318416 7.258774316184956 0 0 0
3817 18 1 13.329313413053441 12.38441293308305 9.89345271327268 0 0 0
3819 18 1 13.597317512567502 12.298715007657034 12.42192350290971 0 0 0
1350 7 1 2.671872435148479 14.454555932390942 5.741053039590681 0 0 0
1798 9 1 2.0450149139737284 19.192465723978216 6.026938633101001 0 0 0
1351 7 1 2.0169655263493014 13.877427965546746 7.010396566754704 0 0 0
1353 7 1 2.0052721524840655 13.881056780490878 9.526509891814081 0 0 0
1352 7 1 2.750211869371002 14.361040096777476 8.264981576586246 0 0 0
1354 7 1 2.510794725025513 14.510363843203992 10.794593487998588 0 0 0
1574 8 1 5.739289560389276 16.82942063154391 7.266600938146587 0 0 0
1576 8 1 5.962951545834706 17.418876987728318 9.710229959010437 0 0 0
1575 8 1 6.651249207707387 16.730726215682388 8.525806786594424 0 0 0
1577 8 1 6.702236271284258 17.410336933445855 11.02561936543163 0 0 0
1578 8 1 5.837698884855557 17.239900347006127 12.24893160853173 0 0 0
1799 9 1 1.9522904423269667 18.43747424937333 7.328150569930569 0 0 0
1801 9 1 1.537398690577377 18.415840492057626 9.751242490839143 0 0 0
1803 9 1 1.4724972026957182 18.189441276730918 12.310008349922008 0 0 0
1800 9 1 1.7782187578698108 19.32047886855227 8.572582999247727 0 0 0
1802 9 1 1.6927438898648108 19.146665127021393 11.12120882689475 0 0 0
4038 19 1 10.433928914285126 14.605930072261831 5.885844973857414 0 0 0
4042 19 1 10.28059512008686 14.326165573599335 10.82170345092076 0 0 0
4040 19 1 10.326828274170026 14.431195914727983 8.313242943873071 0 0 0
4039 19 1 9.483192406196558 14.770932745409267 7.073349328114379 0 0 0
4041 19 1 9.619727182790088 14.935296981796993 9.584402431888014 0 0 0
4265 20 1 13.467778107159111 16.724718072814802 9.720966910082698 0 0 0
4263 20 1 13.383983823995191 16.561884102722317 7.146268371127999 0 0 0
4267 20 1 13.427128395408417 16.855218321849456 12.254130145887027 0 0 0
4266 20 1 14.056845055642642 16.222470656367776 11.008879791674442 0 0 0
4264 20 1 14.17779941371482 16.239339430757028 8.448235146257991 0 0 0
4043 19 1 9.614878893066228 14.752458451664213 12.107455418159063 0 0 0
4488 21 1 10.177692304413005 18.59642864415705 8.535213306748103 0 0 0
4490 21 1 10.14270277402558 18.761200236540077 10.956336235799439 0 0 0
4487 21 1 9.80075291245893 19.18959484961517 7.172600888982505 0 0 0
4491 21 1 9.875737642707506 19.564404210267433 12.192239871432324 0 0 0
4489 21 1 9.535884395376332 19.283401822442052 9.658374563876787 0 0 0
2474 12 1 6.915663566530708 25.821772838172578 10.70360155071761 0 0 0
2472 12 1 6.606252725450338 25.991580909136978 8.145970823347708 0 0 0
2471 12 1 5.967805875131302 25.348901472758406 6.884653592997855 0 0 0
2473 12 1 6.158241067250539 25.32707546705975 9.465792197069813 0 0 0
2475 12 1 6.2493403910467435 25.24798657536907 11.899383349987858 0 0 0
2022 10 1 5.933727406799896 20.968610093060967 7.003078805669645 0 0 0
2026 10 1 5.65811916704995 21.24607567886725 12.007752843253206 0 0 0
2024 10 1 5.615590507480677 21.35464413037092 9.40821620773217 0 0 0
2023 10 1 6.556668507098791 21.672599825615336 8.249262996322251 0 0 0
2250 11 1 2.576210903019341 23.212553140133366 11.213811129527587 0 0 0
2251 11 1 1.8670096768494238 22.625754820883607 12.413547053366136 0 0 0
2025 10 1 6.36359585138683 21.701573249859074 10.73804574122721 0 0 0
2247 11 1 2.1509653399943245 23.012883503013555 7.372686495301291 0 0 0
2248 11 1 2.878428239534702 23.395743477956138 8.701644243750284 0 0 0
2249 11 1 2.0950196522637907 22.770119945979786 9.864716375751172 0 0 0
2027 10 1 6.3881826475574535 21.536314301892894 13.31649267949016 0 0 0
4710 22 1 14.837571838946966 20.90360183460278 5.923334231870132 0 0 0
4932 23 1 10.322262870515265 23.306152874524678 5.59750844706996 0 0 0
5163 24 1 13.859527828890865 25.55503678114335 12.077874955477235 0 0 0
5161 24 1 14.04720862129149 25.54026016453924 9.634065440897412 0 0 0
5159 24 1 14.095648577220057 25.740648238630477 7.1020529528659715 0 0 0
4712 22 1 14.543740342000033 20.593052881629667 8.490778575173861 0 0 0
4714 22 1 14.171458219982709 20.485170988457703 11.01696773693 0 0 0
5160 24 1 14.672046323511076 24.975054971076098 8.310014272683516 0 0 0
5162 24 1 14.578261398311792 24.918715179599204 10.932271088688474 0 0 0
4711 22 1 14.011857711779571 21.16357420974353 7.180919130525515 0 0 0
4713 22 1 13.72151085879634 21.152019570417686 9.69771009860749 0 0 0
4715 22 1 13.716977839258316 21.284270462844013 12.245885459096998 0 0 0
4933 23 1 9.553901099019189 23.632664672438686 6.853932190763736 0 0 0
4934 23 1 10.463636343467288 23.178014859323056 8.022061464688882 0 0 0
4935 23 1 9.708018544102266 23.356002739393936 9.32019972610687 0 0 0
4937 23 1 9.495219030997259 23.2807100940813 11.929521051331989 0 0 0
4936 23 1 10.373905624712435 23.127765750170035 10.66203172991813 0 0 0
239 2 1 6.769149675100857 3.2660867513308918 13.052428760173582 0 0 0
461 3 1 2.5646143706306335 5.483563714282095 13.417830112747303 0 0 0
12 1 1 3.071903135777746 1.0000169782191901 13.420595969430506 0 0 0
241 2 1 6.744467281760255 3.080026824570593 15.633640243117735 0 0 0
240 2 1 5.986579617205247 3.484412067610557 14.373232778340064 0 0 0
242 2 1 5.816771102414267 3.086226141133869 16.83308626521422 0 0 0
243 2 1 6.420579035548339 2.667908874975559 18.166085147329586 0 0 0
16 1 1 2.7724472192398815 0.668018002838213 18.423314149412622 0 0 0
14 1 1 3.084925231345645 0.635792934552865 16.042193827000936 0 0 0
464 3 1 1.7361276357154998 4.832627461780419 17.302083203771236 0 0 0
13 1 1 2.508199684620764 0.30616388021648266 14.670282678887675 0 0 0
462 3 1 2.086859057679191 4.684472109194618 14.646676254512553 0 0 0
15 1 1 2.290503850233524 -0.005969483021228808 17.190316041193476 0 0 0
17 1 1 2.2261194927923884 0.022199941500682385 19.74005143481176 0 0 0
463 3 1 2.281583015495541 5.457122784369137 15.957348310497888 0 0 0
244 2 1 5.637414841815862 3.0249874818216087 19.43723281844832 0 0 0
465 3 1 2.153684428939155 5.559773513383671 18.56743962272068 0 0 0
466 3 1 1.8918775486443824 4.7769673826750925 19.874542688933168 0 0 0
688 4 1 5.926698966132216 7.348562273708222 17.65502773691742 0 0 0
2924 14 1 14.032558443898814 2.3798029318994818 13.123440797550435 0 0 0
3147 15 1 10.64848987112035 5.083832359641191 13.324318409895838 0 0 0
2700 13 1 10.439557823782987 0.46725391123952453 13.261351056775176 0 0 0
2925 14 1 13.620864589435428 3.0184790581758016 14.430996233389427 0 0 0
2927 14 1 13.571685569902282 2.970658035732498 16.987792558564614 0 0 0
2701 13 1 9.973467153418062 1.2790466005874945 14.47640612321049 0 0 0
2703 13 1 10.055235856904304 1.2369099271332973 17.14485888012563 0 0 0
2926 14 1 13.922115322612234 2.2150032641324717 15.703490443977081 0 0 0
2928 14 1 13.99627704882392 2.4100276134619496 18.35278369731452 0 0 0
2702 13 1 10.286914455099609 0.5209548959741798 15.79241708181328 0 0 0
2704 13 1 10.389732751232202 0.44470818943764456 18.353588708253938 0 0 0
2929 14 1 13.444230171745685 3.05604181403184 19.59192400279152 0 0 0
3149 15 1 10.210633265165209 4.991239455619243 15.80425577530885 0 0 0
3151 15 1 10.03455657651462 5.002150102755056 18.32637084755184 0 0 0
2705 13 1 9.861260129265201 1.000017425094484 19.605455908683478 0 0 0
3148 15 1 10.01641937274021 5.759638968902867 14.527102038635933 0 0 0
3150 15 1 9.77799854155079 5.814904434323621 17.06445792597525 0 0 0
3152 15 1 9.527664649673973 5.531861421541166 19.6619555711493 0 0 0
910 5 1 2.4721299851693868 9.770418036150604 13.052562815275952 0 0 0
686 4 1 5.74279830338803 7.517539521272182 15.128999661931427 0 0 0
912 5 1 2.3502095913561045 10.031039296517584 15.638667024187363 0 0 0
914 5 1 2.382315820552903 9.677468640669092 18.201760646208264 0 0 0
687 4 1 6.18413394042489 8.255882048554886 16.401803815037702 0 0 0
689 4 1 6.025432044848924 8.292911358608112 18.83466292123091 0 0 0
911 5 1 1.5968901005459082 9.952555262113586 14.316630525309971 0 0 0
913 5 1 1.5359649826994255 9.62074923755122 16.897741208820012 0 0 0
1134 6 1 5.9338214587838065 12.027306152255585 14.36937212939856 0 0 0
1136 6 1 6.143552394003394 11.809439781542105 16.990047537537958 0 0 0
915 5 1 1.6431435036786906 9.22004985693991 19.489355910915716 0 0 0
1133 6 1 6.170575855008796 12.807820086760755 13.02439612955047 0 0 0
1137 6 1 6.207311552418387 12.695622158380186 18.22060962243353 0 0 0
1135 6 1 6.291659535652516 12.69088134149207 15.7058370381034 0 0 0
1138 6 1 6.161194807735651 11.80845272021417 19.490650376841213 0 0 0
690 4 1 5.898614108622779 7.463330719941314 20.109696218912372 0 0 0
3596 17 1 10.018617634572188 9.637963146197697 13.179217656379686 0 0 0
3372 16 1 14.217835843545048 7.258246526538635 13.359330644489061 0 0 0
3374 16 1 13.843051929863336 6.812246349528559 15.869089858516222 0 0 0
3376 16 1 13.714594635898715 6.644476787875787 18.42750318339377 0 0 0
3373 16 1 13.640339548508859 7.73238846957939 14.689679941523348 0 0 0
3375 16 1 13.320417699533621 7.4204047382866385 17.195411066247548 0 0 0
3599 17 1 9.62135677721835 10.125808782901068 17.122135709954556 0 0 0
3597 17 1 9.567907633299319 10.311847148816652 14.539731129249706 0 0 0
3598 17 1 10.203677776398877 9.631310187535753 15.731653666260794 0 0 0
3600 17 1 9.932623165857713 9.277925866813806 18.398202857536344 0 0 0
3824 18 1 13.872648238408111 11.20019784172805 18.755737832556836 0 0 0
3821 18 1 13.655378362436457 12.227717678016665 14.934486722520166 0 0 0
3601 17 1 9.777347429033576 9.937438911509277 19.688969640438913 0 0 0
3820 18 1 14.035911023866714 11.520001423497341 13.633736313777527 0 0 0
3822 18 1 14.01328290398153 11.401519445810521 16.130679069497038 0 0 0
3823 18 1 13.685189930982203 12.058183640275567 17.482424045478965 0 0 0
3377 16 1 13.363412186124556 7.377004321106746 19.675395533854466 0 0 0
3825 18 1 13.442841521676318 11.86296638726067 20.046062257242347 0 0 0
1579 8 1 6.636534037419897 17.13825492402274 13.551972816381339 0 0 0
1356 7 1 2.5283860278399235 14.32152677027439 13.375995412528377 0 0 0
1359 7 1 1.7281462855403964 13.793749109254817 17.16208297402165 0 0 0
1357 7 1 1.7560247341900193 13.922925199570901 14.63088154847972 0 0 0
1358 7 1 2.447677586076577 14.35618399025503 15.914302701810772 0 0 0
1360 7 1 2.1578216338504976 14.22456298878203 18.50519852119816 0 0 0
1580 8 1 5.712880262891286 16.757465670612724 14.716548616027076 0 0 0
1583 8 1 6.552896126858253 16.6499503840843 18.529732575792075 0 0 0
1582 8 1 5.7283564962281535 16.85358140875673 17.24077901037818 0 0 0
1581 8 1 6.533819815922055 16.65351580729984 15.969831631404233 0 0 0
1805 9 1 1.8584578069001654 18.013683812965418 14.848570559862825 0 0 0
1807 9 1 1.8867468242831587 17.94658524974887 17.39884681370128 0 0 0
1584 8 1 5.908724727353963 17.023336667941457 19.868735211694002 0 0 0
1809 9 1 1.6853975547609394 18.065857348742256 19.963425402444614 0 0 0
1804 9 1 1.6497944999398004 18.91858635014617 13.633176120788105 0 0 0
1806 9 1 1.808854402731964 18.788142585179905 16.14548250244019 0 0 0
1808 9 1 1.7879033134117663 18.810988058179262 18.63791968265857 0 0 0
1361 7 1 1.7791072704274529 13.469332044248995 19.802377926222494 0 0 0
4044 19 1 10.356717456772804 14.189851529537007 13.319107887019603 0 0 0
4268 20 1 14.078183011116023 16.38370197556391 13.552826774039659 0 0 0
4048 19 1 10.24893911358194 13.63638778082372 18.49831335304682 0 0 0
4046 19 1 10.291546744215466 13.720526222720233 15.918442689164124 0 0 0
4270 20 1 13.940063333961424 16.254338841103134 16.101214876004217 0 0 0
4045 19 1 9.735243114292507 14.43914783325488 14.673732419242066 0 0 0
4047 19 1 9.517101291810938 14.030789690005887 17.21110047233482 0 0 0
4269 20 1 13.424736636493696 16.937271123508133 14.852910206719578 0 0 0
4271 20 1 13.271987148669847 16.5591288757602 17.38663254430467 0 0 0
4272 20 1 13.643084890858585 15.7845826884627 18.666893873674162 0 0 0
4496 21 1 10.158926046133011 18.353819849939413 18.483309216355636 0 0 0
4492 21 1 10.408134451192671 18.851667073963426 13.417299491635339 0 0 0
4494 21 1 10.349488252657768 18.573868169273844 15.985346146042264 0 0 0
4493 21 1 9.714122341563623 19.187715198248284 14.699050711027814 0 0 0
4497 21 1 9.593226946870521 18.90361660975841 19.793218813298527 0 0 0
4495 21 1 9.624619564495486 19.025362226243665 17.24665243398559 0 0 0
4049 19 1 9.567549548030826 14.119956243455588 19.765716916916045 0 0 0
4273 20 1 13.205441560935112 16.21202099541258 20.038625100078537 0 0 0
2478 12 1 6.674291224050488 25.640368046603648 15.732269165655204 0 0 0
2476 12 1 6.724423769685354 25.786934670587456 13.233738010873996 0 0 0
2480 12 1 6.5149130165721925 25.34487106719223 18.265656344836426 0 0 0
2479 12 1 5.822423472465274 25.05921147911326 16.9025334394589 0 0 0
2477 12 1 6.025010920980665 25.142250360294497 14.454539682989768 0 0 0
2252 11 1 2.5985321916778643 23.176223569138592 13.669760685751806 0 0 0
2030 10 1 5.5881762951576155 20.936448501219857 17.14308619453052 0 0 0
2028 10 1 5.6601796755256055 21.12064872467404 14.57045714038328 0 0 0
2029 10 1 6.4086209724942504 21.177916707345588 15.89300921279954 0 0 0
2254 11 1 2.6074139117054225 23.349369334843736 16.25496765840822 0 0 0
2256 11 1 2.318757072120709 23.256731957099717 18.754570551475336 0 0 0
2253 11 1 2.0318226948030094 22.79825761707228 14.98484564523881 0 0 0
2031 10 1 6.342832229376549 21.099855162257015 18.44882092123427 0 0 0
2255 11 1 2.0027933962712545 22.566169341329534 17.408239691675753 0 0 0
2257 11 1 1.8123585546840668 22.54593623956677 19.96248773795826 0 0 0
2032 10 1 5.483262052465651 20.902092991296904 19.69355338743695 0 0 0
2481 12 1 5.746118731067539 24.68154925392453 19.444235116369313 0 0 0
4938 23 1 10.28198126133321 23.585936220217718 13.140929744640028 0 0 0
5165 24 1 13.457525897811811 25.29390631079807 14.510552136905794 0 0 0
5167 24 1 13.485970550090345 25.499192787041522 17.155043360332655 0 0 0
5169 24 1 13.525671437211434 25.49858639687057 19.711414648815804 0 0 0
5164 24 1 14.336862195269333 24.954539496515935 13.38455173558144 0 0 0
4716 22 1 14.26701114052977 20.602372305275907 13.503717823162008 0 0 0
4718 22 1 14.047989508277281 20.476816443850048 16.075296194545665 0 0 0
4720 22 1 13.829669046679104 20.29728335944347 18.56028876806128 0 0 0
5166 24 1 14.212569570253907 25.00614059952506 15.85497355015194 0 0 0
4717 22 1 13.882081836119426 21.295248933039623 14.83960422439926 0 0 0
5168 24 1 14.324176499554248 25.27172661739005 18.43624750507266 0 0 0
4719 22 1 13.526565343715585 21.154302845474973 17.335886461456674 0 0 0
4941 23 1 9.540333338567441 23.177325801277043 16.920264068871113 0 0 0
4939 23 1 9.341201464930295 23.604837682064748 14.402360905790271 0 0 0
4940 23 1 10.14630270251045 23.83694640632131 15.717717939183732 0 0 0
4942 23 1 10.429838076904382 23.067604185966182 18.180181174634363 0 0 0
4943 23 1 9.703493274160257 22.748357068723408 19.474026039017104 0 0 0
4721 22 1 13.34624234746107 20.95527557662328 19.832537444406164 0 0 0
247 2 1 6.369198214758978 2.921473674629399 23.443414480284034 0 0 0
245 2 1 6.432988501061786 2.91437858019979 20.759560657400694 0 0 0
248 2 1 5.437745457082109 2.874943448415192 24.63262069193399 0 0 0
246 2 1 5.61812291890722 2.954992295536892 22.107923019799962 0 0 0
249 2 1 6.1396266203750685 2.9731016345592556 25.994376203687395 0 0 0