LAMMPS data file via write_data, version 29 Oct 2020, timestep = 32000000

10752 atoms
2 atom types
10752 bonds
3 bond types
10752 angles
3 angle types
10752 dihedrals
3 dihedral types

-1.4019591925125496e-01 3.1008115919238300e+01 xlo xhi
-1.2113307625790526e-01 2.6791853076229280e+01 ylo yhi
 1.0189540464913591e+01 2.7280981953446502e+02 zlo zhi

Masses

1 14
2 15

Pair Coeffs # lj/cut/omp

1 0.0914 3.95
2 0.1947 3.75

Bond Coeffs # harmonic/omp

1 449.5 1.53
2 449.5 1.53
3 449.5 1.53

Angle Coeffs # harmonic/omp

1 62.0967 114
2 62.0967 114
3 62.0967 114

Dihedral Coeffs # opls/omp

1 1.411 -0.271 3.145 0
2 1.411 -0.271 3.145 0
3 1.411 -0.271 3.145 0

Atoms # molecular

1            1            1       27.536      8.99109      12.7969
2            1            1      27.3099      7.90075      13.8419
3            1            1      28.2782      8.13691       15.007
4            1            1      28.1622      7.12405      16.1362
5            1            1      29.1175      7.43025       17.273
6            1            1      28.9702      6.35068      18.3054
7            1            1      29.8602      6.49947        19.58
8            1            1      29.6722      5.32541      20.6301
9            1            1      30.4611      5.69496      21.8581
10            1            1      30.1983      4.79655      23.0555
11            1            1     0.192665      4.86176      24.0297
12            1            1   -0.0943364      4.06835      25.2591
13            1            1     0.978339      4.15992      26.2992
14            1            1      0.73384      3.18062      27.4666
15            1            1      1.56382      3.41742      28.7309
16            1            1      1.47315      2.21249      29.6324
17            1            1      2.39526      2.29566      30.8434
18            1            1      1.91943      1.63694      32.1204
19            1            1      2.66344      1.93303      33.3907
20            1            1      2.20725     0.970911      34.4498
21            1            1        3.132      1.05104      35.6716
22            1            1      2.77036     0.124607      36.8325
23            1            1      3.83736    0.0507498      37.9381
24            1            1      3.55825      25.9929      39.0722
25            1            1       4.4653       26.254      40.2379
26            1            1      4.17668      25.5135      41.5304
27            1            1      5.02038      25.8866      42.7388
28            1            1      5.04937      24.8237       43.848
29            1            1      5.88408       25.059      45.0972
30            1            1      5.66015      23.9806      46.1873
31            1            1      6.28112      24.4261      47.5027
32            1            1      6.26897      23.2184      48.4808
33            1            1      7.08628      23.4889      49.7357
34            1            1      7.08641      22.4197      50.8279
35            1            1      7.69683      22.8217      52.1557
36            1            1      7.85871       21.591       53.089
37            1            1      8.60186       21.908      54.3547
38            1            1      8.29431      20.8214      55.3465
39            1            1      9.16851      20.9701      56.5645
40            1            1      8.92203      20.0704      57.7741
41            1            1       9.7252      20.3438      58.9966
42            1            1      9.20778      19.4914      60.1144
43            1            1      10.0724      19.4861      61.3992
44            1            1      9.55329      18.7864      62.6186
45            1            1      10.5924      18.9013      63.7082
46            1            1      10.2352      18.0552      64.9708
47            1            1      11.2419       18.201      66.0409
48            1            1      10.9344      17.3244      67.2707
49            1            1      11.9939      17.6333      68.3705
50            1            1      11.8628      16.5577      69.4769
51            1            1      12.6113      16.9536      70.7179
52            1            1      12.2877       16.025      71.8749
53            1            1      13.1226      16.2286      73.1288
54            1            1      12.9571      15.1411      74.1999
55            1            1      14.1185      15.0508      75.2152
56            1            1      13.8201      14.2955      76.5781
57            1            1      14.5991      14.7324      77.8098
58            1            1       14.419      13.7118      78.8698
59            1            1      15.1478       13.967      80.1758
60            1            1      14.9763      12.8262      81.1456
61            1            1      15.6764      12.9912      82.4599
62            1            1      15.9095      11.7059      83.2394
63            1            1      16.7056      11.8312      84.5209
64            1            1      16.3129      10.7864      85.5337
65            1            1      17.2257      10.8814      86.7402
66            1            1      16.8036      10.1914      88.0086
67            1            1      17.6669      10.5238      89.2058
68            1            1      17.3551      9.88866       90.524
69            1            1      18.3384      10.0462      91.6957
70            1            1      17.9587      9.10869      92.8459
71            1            1      18.7015      9.41993      94.1471
72            1            1      18.6691      8.21834      95.0622
73            1            1      19.4583      8.46723      96.3763
74            1            1      19.3518      7.38372      97.4423
75            1            1       20.217      7.80605      98.6268
76            1            1      19.7302      7.07922      99.9038
77             1             1       20.2751       7.95792       101.096
78             1             1       19.5007       7.69427       102.395
79             1             1       19.8013       8.49408       103.659
80             1             1       18.7333       8.16874       104.715
81             1             1       19.0012       9.00618       105.984
82             1             1       18.0816        8.8056       107.256
83             1             1       18.4478       9.61914        108.45
84             1             1        17.665       9.26627       109.742
85             1             1       17.5853       10.3394       110.782
86             1             1       17.0678       9.69167       112.083
87             1             1       16.5502       10.7792       113.018
88             1             1       16.3308       10.4413       114.502
89             1             1       16.0148       11.6647       115.358
90             1             1       15.5481       11.2378       116.776
91             1             1       15.5948       12.5027       117.636
92             1             1       14.9476       12.2402       118.961
93             1             1       14.9952       13.3944       120.006
94             1             1       14.0547       13.0797       121.095
95             1             1       14.2061       14.0468       122.272
96             1             1       13.1504       13.7315       123.383
97             1             1       13.3735       14.6067       124.634
98             1             1       12.3466       14.4172       125.725
99             1             1        12.728       15.2957        126.89
100             1             1       11.5994       15.3805       127.969
101             1             1       12.0174       16.1009       129.269
102             1             1       10.8566       16.3339       130.183
103             1             1       11.2337       16.7969       131.579
104             1             1       10.0254       17.0499       132.442
105             1             1       10.4497        17.585       133.797
106             1             1       9.32788       17.6499       134.851
107             1             1       9.84331       17.9447       136.311
108             1             1       8.65457       18.3066       137.252
109             1             1       9.13574       18.6386        138.68
110             1             1       7.93586       18.8728       139.592
111             1             1       8.41012       19.2473       140.993
112             1             1        7.2995       19.5235       141.919
113             1             1       7.73248       20.0221         143.3
114             1             1       6.62548       19.8825       144.305
115             1             1        7.0388       20.5382       145.622
116             1             1       5.84601       21.1598       146.385
117             1             1       6.33084       21.7316       147.717
118             1             1       5.24068       21.6741       148.759
119             1             1        5.7356        22.183       150.097
120             1             1       4.77348       22.3228       151.233
121             1             1       5.24837       23.1062       152.468
122             1             1       4.12046       23.2168       153.601
123             1             1       4.76427       23.7733       154.894
124             1             1        3.7001        24.084       155.905
125             1             1       4.11532       24.8173       157.236
126             1             1        2.9354       25.0987        158.17
127             1             1       3.43391       25.7237       159.439
128             1             1       2.37415       25.7359       160.563
129             1             1       2.67112       26.3575       161.927
130             1             1       1.60715       26.1868       162.995
131             1             1       1.95363     0.0699762       164.304
132             1             1      0.950618    -0.0740462       165.444
133             1             1       1.32401      0.733294       166.644
134             1             1       0.35287      0.712942       167.788
135             1             1      0.610637       1.65634       168.914
136             1             1       30.6658       1.61283       169.999
137             1             1    -0.0221455       1.98166        171.39
138             1             1       30.0604       2.42252       172.382
139             1             1       30.5602       2.95848       173.694
140             1             1       29.4369       3.24292       174.689
141             1             1       29.9568       3.81331       176.039
142             1             1       28.7454       4.23061       176.932
143             1             1        29.165       4.67017       178.349
144             1             1       27.9598       5.08261        179.21
145             1             1       28.4472       5.58711       180.553
146             1             1       27.4101       5.67917       181.645
147             1             1        27.803       6.50298        182.82
148             1             1       26.8291       6.40013       184.024
149             1             1       27.3406       6.98604       185.365
150             1             1       26.1878       7.05094       186.397
151             1             1        26.662       7.49355       187.782
152             1             1       25.5918       7.43016       188.951
153             1             1       26.0247       8.14319       190.237
154             1             1       24.8585       8.61501       191.177
155             1             1       25.2814         9.448       192.375
156             1             1       24.4208       9.30753       193.653
157             1             1       24.7717       10.1712       194.843
158             1             1       23.7032       10.2524       195.964
159             1             1       24.0492       11.0919        197.15
160             1             1       22.9041       11.2772       198.161
161             1             1        23.333       11.3729       199.575
162             1             1       22.1019       11.8159       200.446
163             1             1        22.567       12.4293       201.772
164             1             1       21.4558       12.5903       202.745
165             1             1        21.941       13.1731       204.058
166             1             1       20.8544        13.337       205.105
167             1             1       21.4198       13.8767       206.395
168             1             1       20.4847       13.9339       207.599
169             1             1        20.695       15.0921       208.585
170             1             1         19.67       15.0213       209.715
171             1             1       20.0008        15.987       210.845
172             1             1        18.968       15.8518        211.98
173             1             1       19.1919       16.4548        213.34
174             1             1       18.0246        16.443       214.307
175             1             1        18.292       17.3262       215.545
176             1             1       17.2586       17.2375       216.669
177             1             1       17.6844       18.1808       217.831
178             1             1        16.771       17.9027       219.047
179             1             1       17.2704       18.7871       220.106
180             1             1       16.3915       18.6764       221.333
181             1             1       16.9657       19.3383       222.594
182             1             1       15.9608       19.3098       223.686
183             1             1       16.5539       19.8462        224.99
184             1             1       15.5579       20.0313       226.184
185             1             1       16.2292       20.4464       227.502
186             1             1       15.2779       20.6561       228.694
187             1             1       15.9126       21.2779       229.974
188             1             1       14.9903       21.3104       231.174
189             1             1       15.6532       21.4773       232.533
190             1             1       15.3356       20.4934       233.687
191             1             1       15.9158       20.9034        235.08
192             1             1        15.724       19.8672       236.172
193             1             1       16.4788        20.388       237.351
194             1             1        16.537       19.2719       238.447
195             1             1       17.1234       19.9391        239.75
196             1             1       17.1008        18.932       240.861
197             1             1        17.578       19.4668       242.241
198             1             1       17.5862       18.3771       243.319
199             1             1        18.244       18.7574       244.627
200             1             1       18.2316       17.6932       245.713
201             1             1       18.9321       18.1021       247.017
202             1             1       18.6851       17.0837       248.096
203             1             1       19.5177       17.1906        249.36
204             1             1       19.4673       15.9906         250.3
205             1             1       20.0287       16.2862       251.686
206             1             1       19.9683       15.0925        252.67
207             1             1       20.6546       15.5044       254.017
208             1             1       21.0798       14.3913       254.942
209             1             1       21.7145       14.7598       256.284
210             1             1       21.7931       13.7272       257.388
211             1             1       22.4414       14.1055       258.659
212             1             1       22.3942       13.0042       259.758
213             1             1       23.0583       13.4139       261.101
214             1             1       22.8907       12.4058       262.277
215             1             1       23.7972       12.7928       263.422
216             1             1        23.834       11.7048       264.522
217             1             1       24.6906       11.9804       265.815
218             1             1       24.7186       10.9153       266.898
219             1             1       25.5426       11.2051       268.166
220             1             1        25.235       10.3192       269.435
221             1             1       26.1839       10.6532       270.589
222             1             1       26.0409       9.62937       271.787
223             1             1       26.9872       9.79373        10.341
224             1             1       26.7423       8.84492        11.536
225             2             1       29.2774       12.5769       268.691
226             2             1       30.4805       12.5749       269.698
227             2             1        30.258       11.6372       270.881
228             2             1     0.0800294       11.5782       272.033
229             2             1         30.73       10.8805       10.6791
230             2             1      0.534239       11.2249        11.858
231             2             1      0.444272       10.2118       13.0116
232             2             1       1.23119       10.5584       14.2784
233             2             1       1.14779       9.47544       15.3791
234             2             1       1.80896       9.90699       16.6531
235             2             1       1.83683       8.76065       17.6588
236             2             1        2.2582       9.14198       19.0457
237             2             1       2.23857       8.04468        20.182
238             2             1       2.78544       8.37951       21.5517
239             2             1       3.10892       7.10576        22.338
240             2             1       3.66783       7.55265       23.7172
241             2             1       3.66744        6.4601       24.7285
242             2             1       4.40524       6.88531       25.9664
243             2             1       4.13276        5.7839       26.9881
244             2             1       4.99688        6.0369       28.2098
245             2             1       4.95936       4.93888       29.2754
246             2             1       5.95613       5.01121       30.4482
247             2             1       5.82503       3.79269       31.4188
248             2             1       6.77878       4.10174       32.6314
249             2             1       6.55844       3.05201       33.7415
250             2             1       7.24886       3.34039       35.0969
251             2             1       6.76396       2.43344       36.2396
252             2             1       7.49823       2.55642       37.5537
253             2             1       7.35641       1.52216       38.7281
254             2             1       8.35317       1.69811       39.8709
255             2             1       7.98118      0.931807       41.1392
256             2             1       9.00142       1.05008        42.279
257             2             1       8.62309      0.219526       43.5293
258             2             1       9.61478      0.442666       44.6894
259             2             1       9.64465       26.2779       45.7336
260             2             1       10.2484       26.7473       47.0362
261             2             1       10.2463       25.6409       48.1073
262             2             1       10.9556       25.7798        49.405
263             2             1        10.595       24.8238       50.5906
264             2             1       11.5384       24.9839        51.803
265             2             1       11.1957       24.1142       52.9511
266             2             1       12.2321       24.3945       53.9764
267             2             1       12.0313       23.5645       55.2597
268             2             1       13.0629       23.5715       56.3632
269             2             1       12.5329       22.8313       57.6398
270             2             1       13.4326       22.8524       58.8088
271             2             1       13.1128       21.8471       59.8621
272             2             1       14.0226       21.7402       61.0691
273             2             1       13.5579       20.8477       62.2395
274             2             1        14.493       21.0777       63.4048
275             2             1       14.2432       20.2625       64.6177
276             2             1       15.1808       20.5776       65.7723
277             2             1       14.8473       19.7493       66.9837
278             2             1       15.8115       19.9029       68.1706
279             2             1       15.3543       19.2327       69.5093
280             2             1       16.4255        19.127       70.5801
281             2             1       16.0879       18.2799       71.7153
282             2             1         17.14       18.1929       72.7589
283             2             1       16.6254       17.4262       74.0191
284             2             1       17.7315       17.4928       75.0695
285             2             1        17.353       16.6114       76.2482
286             2             1       18.3161       16.8151       77.4528
287             2             1       17.8594       15.9525       78.5678
288             2             1        18.871       15.9494       79.7424
289             2             1       18.7493        15.021       80.9689
290             2             1       19.8451       15.0293       81.9549
291             2             1       19.4044       14.3202       83.2055
292             2             1        20.338       14.5031       84.4384
293             2             1       20.2487       13.4265       85.5469
294             2             1       20.8012       13.8966       86.8759
295             2             1       20.4978       12.8728       87.9416
296             2             1       21.3878       12.9863       89.1582
297             2             1       21.1663       11.9932       90.3411
298             2             1       22.0669        12.319       91.4635
299             2             1       22.0939       11.2085       92.5133
300             2             1       22.8887       11.4991       93.7899
301             2             1       22.7444       10.4425       94.8619
302             2             1       23.4716       10.8045       96.1338
303             2             1       23.2162       10.0172        97.403
304             2             1       23.9678       10.4802       98.6623
305             2             1       23.5965       9.66893       99.9197
306             2             1       24.2417       10.1084       101.199
307             2             1       23.3782       9.65253       102.421
308             2             1       23.3499       10.7506       103.502
309             2             1       22.5534       10.3473       104.722
310             2             1       22.8891       11.1144       105.976
311             2             1       22.0854       10.7711       107.202
312             2             1       22.2117       11.6745       108.409
313             2             1       21.3683       11.3148       109.612
314             2             1       21.6237       12.0931       110.847
315             2             1       20.7234       11.7938       112.007
316             2             1       20.7789       12.8617       113.094
317             2             1       19.9508       12.4129       114.305
318             2             1       19.7335       13.6614       115.189
319             2             1        19.134       13.3807       116.558
320             2             1       19.2549       14.5472       117.489
321             2             1       18.4688       14.2321       118.739
322             2             1       18.6862       15.2783       119.817
323             2             1       18.0166       14.9584       121.175
324             2             1       17.9937       16.2168       122.068
325             2             1       17.3276       15.8832       123.394
326             2             1       17.4429        16.929       124.486
327             2             1       16.3893        16.679       125.598
328             2             1       16.4881       17.7249       126.683
329             2             1       15.7355       17.3248       127.945
330             2             1       15.8867       18.3786       129.041
331             2             1       14.8973       18.1982       130.225
332             2             1       15.2624       19.0982        131.41
333             2             1       14.1162       19.0843       132.413
334             2             1       14.5357       19.9334       133.619
335             2             1        13.713        19.634       134.919
336             2             1       14.0363       20.5159       136.111
337             2             1       13.0627       20.3791       137.281
338             2             1       13.3931       21.2642       138.478
339             2             1        12.544       20.8796       139.695
340             2             1       12.4904       21.8506       140.884
341             2             1       11.6599       21.3253       142.044
342             2             1       11.6572       22.3751        143.18
343             2             1       10.6329       22.1342       144.326
344             2             1       10.8572       23.0797       145.512
345             2             1        9.9111       22.9302       146.741
346             2             1       10.2023       23.7991       148.022
347             2             1       9.29526       23.6839       149.265
348             2             1       9.66466       24.5279       150.402
349             2             1       8.81436       24.3112       151.579
350             2             1       9.26588       25.1546       152.752
351             2             1       8.28068       25.1225       153.902
352             2             1       8.44239       26.2236        154.97
353             2             1       7.37353       26.1771       156.026
354             2             1       7.64765      0.313206       157.154
355             2             1       6.78672      0.179399       158.374
356             2             1       6.90282       1.21463       159.462
357             2             1        6.2124      0.801514       160.785
358             2             1       6.32757       1.74272       161.984
359             2             1       5.39721       1.53013       163.144
360             2             1       5.82318       2.57678       164.169
361             2             1       5.10361       2.30923       165.521
362             2             1        5.2881       3.43112       166.548
363             2             1       4.42877       3.28549       167.824
364             2             1       4.36345       4.30659       168.943
365             2             1       3.41092       4.02195       170.098
366             2             1       3.88123       4.86343       171.271
367             2             1        3.1805       4.46179       172.555
368             2             1       3.43611       5.41104       173.698
369             2             1       2.45191        5.2581       174.904
370             2             1       2.47076       6.42816       175.863
371             2             1       1.78409       6.05217       177.171
372             2             1       1.93501       7.19966        178.21
373             2             1       1.12763       7.00668       179.484
374             2             1       1.01471       8.14713       180.435
375             2             1      0.292746        7.7062       181.718
376             2             1      0.513213       8.57027       182.953
377             2             1       30.6521       8.47381       184.057
378             2             1       30.9279       9.19148       185.355
379             2             1       29.8236       9.40534        186.37
380             2             1       30.2179       10.0828       187.673
381             2             1       29.1444       9.95216       188.731
382             2             1       29.6439       10.5816       190.029
383             2             1       28.7465       10.3995       191.228
384             2             1       29.1753       11.1383       192.458
385             2             1       28.1285       11.2572       193.564
386             2             1       28.4904       12.1906       194.693
387             2             1       27.5786       12.0433       195.875
388             2             1       27.8538       13.0483       197.039
389             2             1       27.1286       12.7364       198.367
390             2             1       26.9477       13.9799        199.22
391             2             1       26.5037       13.7009       200.614
392             2             1       26.3623       14.9371       201.489
393             2             1       25.5584       14.6197       202.737
394             2             1       25.5239       15.8243       203.702
395             2             1       24.8906       15.3829       205.024
396             2             1       24.8606       16.4197       206.114
397             2             1       24.3065       16.0756       207.488
398             2             1       24.3752       17.2541        208.53
399             2             1       23.5585       17.0464       209.841
400             2             1       23.7166       18.1953       210.834
401             2             1       23.1339       17.8359       212.184
402             2             1       23.3419       18.7843       213.301