LAMMPS data file via write_data, version 23 Jun 2022, timestep = 11111117

9706 atoms
2 atom types
9690 bonds
3 bond types
9674 angles
3 angle types
9658 dihedrals
3 dihedral types

0 36.89775039 xlo xhi
0 26.67072 ylo yhi
36.895128273609316 199.85647612635205 zlo zhi
0 5.127118833858317 0 xy xz yz

Masses

1 14
2 15

Pair Coeffs # lj/cut/omp

1 0.0914 3.95
2 0.1947 3.75

Bond Coeffs # harmonic/omp

1 449.5 1.53
2 449.5 1.53
3 449.5 1.53

Angle Coeffs # harmonic/omp

1 62.0967 114
2 62.0967 114
3 62.0967 114

Dihedral Coeffs # opls/omp

1 1.411 -0.271 3.145 0
2 1.411 -0.271 3.145 0
3 1.411 -0.271 3.145 0

Atoms # molecular

1 2 1 6.124925328323376 26.37586046813037 41.16788380619744 0 -1 0
2 2 1 6.925152678553886 25.168032878735268 41.50174766039544 0 -1 0
3 2 1 7.479636840180656 25.1227588140998 42.88174890764592 0 -1 0
4 2 1 8.683661468413673 24.1724037038278 43.04085818602326 0 -1 0
5 2 1 9.213621985796717 24.413601137569497 44.52822657056266 0 -1 0
6 2 1 10.491186067752345 25.17376428300566 44.62742130511899 0 -1 0
7 2 1 10.769513599863865 25.660011088430892 45.97738956431935 0 -1 0
8 2 1 12.07469650760974 26.314012303252053 46.11003731006674 0 -1 0
9 2 1 12.459352436596724 0.026749353894663975 47.46413883350283 0 0 0
10 2 1 13.645341202547554 0.859988297288222 47.713849227351396 0 0 0
11 2 1 13.817013898665394 1.2127113958321354 49.199345146706975 0 0 0
3034 32 1 12.447526340542622 1.8467607332992784 37.89931127358428 0 0 1
2656 20 1 18.15276198914588 0.8164052876441407 38.240455777367345 0 0 0
9045 17 1 4.278992258745009 18.46780875123502 44.45817485551838 1 0 0
2734 20 1 16.710225612770806 0.7596560714279396 37.68224666721033 0 0 0
764 55 1 12.668852647897397 5.1850710865626 42.68982840482004 0 0 0
457 52 1 6.928083008749163 2.8153486883800567 41.757892280800746 0 0 0
2568 18 1 13.168954208058143 24.85759179879726 39.512578250029875 0 -1 0
5620 42 1 1.7217185960751924 5.135644856772931 50.10614813262096 0 0 0
2567 18 1 12.343158414677017 24.269408611355313 38.39418669273042 0 -1 0
4313 29 1 12.40543675921761 15.231388856232783 37.79650075013994 0 0 0
7236 58 1 4.31757199558964 24.16680314425132 47.82984528008977 0 -1 0
1203 7 1 7.9659184617579 10.660974886229182 37.918351391485196 0 0 1
9491 63 1 1.4181118688164334 24.94735919206149 40.66823638958715 1 0 0
305 53 1 9.379030306778956 0.7092551093852449 39.73203285347566 0 0 0
306 53 1 10.245308633882813 26.157745791174577 40.051015403022504 0 -1 0
307 53 1 11.118342273201169 26.085179926526358 41.26840274651196 0 -1 0
308 53 1 11.822786219976845 0.6795347341641724 41.6053001457949 0 0 0
309 53 1 12.854777913672157 0.4624172027599411 42.62931059774884 0 0 0
310 53 1 13.29924442225401 1.7754898235598713 43.094397797117516 0 0 0
311 53 1 14.095003482181914 1.6789247388150046 44.408567973011806 0 0 0
312 53 1 14.464861600050389 3.1221628396509145 44.91710004551142 0 0 0
313 53 1 15.613023951207145 2.996929163849023 45.79650112561873 0 0 0
314 53 1 16.44497899835717 4.289345548041992 46.08047881795094 0 0 0
4534 42 1 16.887998841337264 17.40285498550544 37.0423129028189 0 0 1
9050 17 1 8.755677106977071 18.625470683901202 48.09677023940772 0 0 0
9496 63 1 5.534435766405644 23.02238789382113 44.729084208297216 0 0 0
2278 19 1 17.9722096414947 1.2830491045478303 47.8949107407539 0 1 0
7467 61 1 12.365918580619976 3.504201915149177 51.73039573434173 0 0 0
1433 9 1 5.898495642264636 13.036082436448163 39.70458821711459 0 0 0
1443 12 1 15.994317304829549 17.553458221654004 46.186236593340475 0 0 0
383 52 1 10.872342072108728 2.8404039715737603 46.22302664535698 0 0 0
384 52 1 11.54778818007869 4.1054821443870955 46.530679355630134 0 0 0
385 52 1 12.383491157058428 4.3845643500719715 47.816772991593396 0 0 0
386 52 1 13.232936609979996 5.588986481500473 47.931013258279656 0 0 0
387 52 1 13.733779733581464 5.468341961470137 49.20574734661827 0 0 0
388 52 1 14.555777318240747 6.777153314435132 49.48549695658677 0 0 0
9275 61 1 1.2370996154984 20.78570518493503 45.57105633214812 0 0 0
3045 25 1 16.95262842925657 5.295938010324212 38.04783049899676 0 0 0
761 55 1 10.0573754095791 3.948683528752565 40.06683233074577 0 0 0
8601 12 1 1.4384267624686395 17.214519632064565 39.69481471408329 0 0 0
12 2 1 15.042644043053219 1.980128040120287 49.28147911004757 0 0 0
2276 19 1 16.62069979110764 26.5414351097038 46.33906470885463 0 0 0
2039 16 1 9.308206399840804 18.505397409941224 39.774453877310535 0 0 0
8825 58 1 1.2362704081997404 16.21921355852602 45.516252426377505 1 0 0
4540 31 1 16.985963767464987 21.75777491361412 41.66136859239853 0 0 0
9502 63 1 10.105611799763027 24.15392752523126 49.33443349085759 0 0 0
316 53 1 17.74663825513494 5.689239473977516 47.676259082774855 0 0 0
762 55 1 11.020050479889239 3.978908435133462 41.18291739876359 0 0 0
2054 17 1 13.173356188232487 23.272171851956376 47.853829229699684 0 0 0
458 52 1 7.821996055583075 2.9936561575680916 42.909567235435695 0 0 0
459 52 1 8.538950902523034 1.6497713042368258 43.011246899323055 0 0 0
460 52 1 9.650231968906764 1.655300083992209 44.09336547337234 0 0 0
461 52 1 10.326605902017219 2.901346660784458 44.72811337807968 0 0 0
8617 12 1 13.27767493659707 17.725080702506784 52.91590260148555 0 0 0
542 55 1 14.271101515474259 6.418323617504745 44.34062753889049 0 0 0
543 55 1 14.85395196062205 7.760908129933214 44.69446346052737 0 0 0
544 55 1 15.707925595524967 7.714088550400434 45.91566466007686 0 0 0
545 55 1 16.66191224801573 8.964255825269188 46.14042979408944 0 0 0
546 55 1 16.957614310897828 9.143443393090754 47.59269931691893 0 0 0
2493 18 1 16.585558083268552 26.225830266354563 41.89293028501763 0 -1 0
2817 37 1 18.268194722864468 5.414096084782172 43.1888174009472 0 0 0
9055 17 1 11.645420447778841 21.932669435632977 52.36559120569772 0 0 0
9056 17 1 13.058408527007922 22.419158939787884 52.489374233557925 0 0 0
6004 44 1 1.5534649863613321 9.774588761498102 50.375752188104116 0 0 0
8441 35 1 3.0872635937660453 10.60575852300731 47.210493262354504 0 0 0
7453 61 1 1.871710728759306 2.651642151723966 40.513178523409 0 0 0
4088 27 1 18.47599826242581 14.420546423512691 38.2740739117448 0 0 1
4764 35 1 17.11447731040741 22.932943839526374 38.039491608205864 0 0 0
8439 35 1 1.5503698791562277 11.780835914191794 45.680657020482194 0 0 0
9279 61 1 4.177540135592569 20.246539280814748 49.20707264379457 0 0 0
8050 54 1 1.2635267949157887 8.318876703939752 44.86748689354186 1 0 0
8052 54 1 2.8323387692711073 7.211951616560106 46.60852273472799 1 0 0
766 6 1 6.9525429545194735 7.35062986679979 41.33497076846284 0 0 0
767 6 1 7.79144601389566 7.489305548615126 42.48414868619004 0 0 0
768 6 1 8.582078073700162 6.2685785861083865 42.88191651730486 0 0 0
769 6 1 9.152617010323878 6.282500537480738 44.25458351759284 0 0 0
770 6 1 10.480902762814672 7.025663300011607 44.43209910461275 0 0 0
771 6 1 10.439575890493918 7.633456115597596 45.838251735579604 0 0 0
772 6 1 11.711452666881561 8.385653833778415 45.8788163813166 0 0 0
773 6 1 11.70923887039235 9.146025665202808 47.16938823698923 0 0 0
774 6 1 13.166129525838292 9.378956370994135 47.29592241428104 0 0 0
775 6 1 13.404256269809183 9.744058252658915 48.77754016462898 0 0 0
776 6 1 14.632240342506988 10.56642333547657 49.00176988578365 0 0 0
3715 39 1 16.621185898363198 12.988209973130484 41.61243735870132 0 0 0
8058 54 1 7.052863318311082 8.537732321922066 51.65923276362524 0 0 0
9274 61 1 0.8481349422002352 21.9757445413818 44.76569557041307 0 0 0
1431 9 1 4.278857754063198 14.194958668793458 38.07115367972405 0 0 0
9493 63 1 2.8164152314755393 23.846387986896406 42.27981761420479 1 0 0
988 6 1 5.298250391456808 8.615942935824497 39.73710058049951 0 0 0
2038 16 1 8.857733897864547 18.581743990235587 38.32005540004322 0 0 0
8220 55 1 2.6654349127036667 11.755759327855113 41.54707202709939 0 0 0
8217 55 1 0.18015257727061268 12.855115143004017 39.039969430599974 0 0 0
382 53 1 8.253712533030917 1.8961431288369655 38.19039688043336 0 0 0
8219 55 1 1.3910235767876153 11.881134681766552 40.84352521878785 0 0 0
989 8 1 15.319222666397483 12.106217203516332 46.02390870145064 0 0 0
990 8 1 16.54741405996432 12.94860152034806 45.90544350540661 0 0 0
991 8 1 16.676445517272214 13.381132865382904 47.385616768281764 0 0 0
6311 64 1 2.8500753625213795 14.080654871537842 51.26029385873618 1 0 0
6312 64 1 2.899326912306659 15.4078802628309 51.90090582933813 1 0 0
986 6 1 4.096756814415362 9.71684451127508 38.21441166464794 0 0 0
7452 61 1 1.4833039264905936 4.099160537090013 40.071548157340246 0 0 0
389 52 1 15.060238300387867 6.673503314622919 50.936772944829485 0 0 0
1444 12 1 16.906396554759088 17.460084118097306 47.43894115683352 0 0 0
3485 25 1 12.370413911814788 6.716170488856895 38.03117079480027 0 0 0
9277 61 1 2.837434899100752 19.754952392929688 47.250807010928426 0 0 0
9049 17 1 7.381675073082657 18.23664886318382 47.55446450160277 0 0 0
9280 61 1 5.5334695272608805 20.77156189191844 49.36991796256525 0 0 0
6690 48 1 1.1420852266457968 17.316745650029755 49.64584610705069 1 0 0
2279 19 1 18.61175591816431 1.5218678309823321 49.32163730075623 0 1 0
4535 42 1 17.127805838481045 18.4737514006747 38.03715318426677 0 0 1
1211 8 1 13.761568215032712 10.847638734401498 44.288056818467446 0 0 0
1212 8 1 14.868761139408939 11.806757088275653 44.553240285107826 0 0 0
1213 9 1 8.60674392769757 10.392752266096917 43.09244810869162 0 0 0
1214 9 1 9.30752952126706 10.394074757077925 44.33011484006044 0 0 0
1215 9 1 10.196801576337668 11.661303119524277 44.44170819964496 0 0 0
1216 9 1 10.669714677131571 11.949791710082565 45.829876090168526 0 0 0
1217 9 1 11.823739577053527 12.97030021810528 45.76137409941609 0 0 0
1218 9 1 12.260274652405371 13.03209350542016 47.21653777635135 0 0 0
1219 9 1 13.195599727499259 14.240069005426172 47.589527407687186 0 0 0
1220 9 1 13.613477464464248 14.197352690691115 49.05652757929868 0 0 0
1221 9 1 14.400396387374052 15.36086752381074 49.37023274958875 0 0 0
1222 9 1 15.275792513878805 15.274605437845626 50.69817765325634 0 0 0
7078 48 1 2.613298746348867 22.710924746311075 51.195205924286114 0 0 0
4092 29 1 15.024617197628618 16.235659353862374 40.37654870834051 0 0 0
5619 42 1 1.2344295668206513 3.72112646303979 49.75528479629239 0 0 0
9284 61 1 8.20832915145775 22.690093768047827 53.014708432670005 0 0 0
2569 18 1 14.544106679146314 25.038168476695397 39.07291170754109 0 -1 0
8833 58 1 7.271403535080393 18.723319520648786 52.02645377412811 0 0 0
8834 58 1 8.560384509084876 18.3697187563006 52.643910972860866 0 0 0
8218 55 1 1.266068854295513 13.097883522627761 40.09133643749113 0 0 0
993 8 1 18.13096972358073 14.525525925431246 49.16773391365283 0 0 0
455 52 1 5.709923251212905 3.9158264752016163 39.95028302414441 0 0 0
1434 9 1 6.218755685712565 12.85393755165098 41.18524113836459 0 0 0
1435 9 1 7.280043017121767 11.799157780822728 41.487561319480186 0 0 0
1436 9 1 7.638679280172005 11.580303691231947 43.018758014763904 0 0 0
1437 12 1 12.034067771282386 13.876299306892335 41.26948164707865 0 0 0
1438 12 1 12.278430204456598 14.134584711253467 42.73221851328749 0 0 0
1439 12 1 13.44838847739372 15.054698732254188 42.89056711490908 0 0 0
1440 12 1 13.800389606947736 15.268625432488882 44.327880943535675 0 0 0
1441 12 1 14.666021138514518 16.405705366029473 44.50791217305407 0 0 0
1442 12 1 15.52749533605546 16.144971266223735 45.70134576117809 0 0 0
9282 61 1 6.771803327916445 21.888506268569632 51.18152590697432 0 0 0
4097 29 1 18.470372289040075 19.532048374125523 44.304632408032404 0 0 0
7454 61 1 2.5867522873802917 2.7615946356693013 41.84360755007043 0 0 0
4542 31 1 18.257319343720333 22.924365890494244 43.51066578787384 0 0 0
8604 12 1 2.9240861282837365 15.343852783712284 42.42513215795419 0 0 0
2492 18 1 15.601350225067174 26.401558093254728 40.8603387852124 0 -1 0
7685 6 1 1.313031712260762 2.803615814913945 45.87354260051138 0 0 0
222 2 1 4.246446652906786 0.5743174526356402 37.89719975737843 0 0 0
1657 12 1 8.60949359178577 13.970976036609759 38.55176696075999 0 0 0
1658 12 1 9.716083432000127 14.183366281587679 39.506033345042326 0 0 0
1659 12 1 10.508777547349025 12.959140314275139 39.680615944757555 0 0 0
1660 12 1 11.041814866274384 12.80553774582196 41.13619569897814 0 0 0
1661 13 1 7.492185222295336 16.142038574044705 41.43692158153409 0 0 0
1662 13 1 7.965711770927157 16.215093185387616 42.80182173309919 0 0 0
1663 13 1 8.97709228884874 15.104397384866475 43.1806098920768 0 0 0
1664 13 1 9.532948298519432 15.050330934774507 44.57353661998712 0 0 0
1665 13 1 10.538800413659597 16.141147764213652 44.624601487814886 0 0 0
1666 13 1 10.965883614704358 16.35814273196066 46.101260762094554 0 0 0
1667 13 1 11.770274974288647 17.654539151584924 46.22860897480245 0 0 0
1668 13 1 12.496896989432086 17.52035923246787 47.5516033629947 0 0 0
1669 13 1 13.202113522333699 18.842273819314816 47.801804901079116 0 0 0
1670 13 1 13.927105772703092 19.051061786864924 49.129125733607 0 0 0
1671 13 1 14.499997692286849 20.351139461253826 49.513318210182156 0 0 0
7076 48 1 1.0466867993840265 21.305436167163844 49.70800051005371 1 0 0
2056 17 1 14.823510122419334 24.570299115863538 49.28949527711847 0 0 0
2490 19 1 8.541591629087867 22.563055397338417 38.594510384824 0 0 0
765 6 1 5.881111639982972 8.42330371123426 41.13513767474919 0 0 0
9048 17 1 7.388258620180348 17.340495932819643 46.45368836565768 0 0 0
13 2 1 15.475551827249259 2.086813896418668 50.65921749971393 0 0 0
8054 54 1 4.3206573931323256 6.01656038146955 48.12936199080638 1 0 0
6309 64 1 1.4337260876546722 13.129424535592147 49.34890205428289 1 0 0
539 4 1 4.459508494020708 5.208016444970415 38.06813438835442 0 0 1
5234 36 1 2.5377590359642515 1.644061319036377 52.18249249287527 0 0 0
1738 13 1 5.9699474541017645 17.38307612159493 39.66515410585683 0 0 0
1739 13 1 6.32264543863733 17.094239229287158 41.08501423400971 0 0 0
1819 16 1 12.916097276544871 18.659736623753446 42.96535164563848 0 0 0
1820 16 1 13.377973800707712 20.020335458967153 43.53777814687888 0 0 0
1821 16 1 14.331856329259436 19.76678583932019 44.71348299616535 0 0 0
1822 16 1 15.294420374861845 20.925517815567456 45.12500658859955 0 0 0
1823 16 1 15.56382136774582 21.20664337640292 46.526999472420094 0 0 0
1824 16 1 16.73246839181349 22.159383662759108 46.54113029688236 0 0 0
1825 16 1 17.14651945117837 22.13157100931006 47.97592351718379 0 0 0
6693 48 1 2.6318253780533123 19.594381617108365 52.52163669760348 1 0 0
1735 13 1 3.733861482371487 19.73539251249539 37.87220832388716 0 0 0
9041 14 1 1.4816459343134238 21.084322793180867 41.07790170145637 1 0 1
7239 58 1 5.7133957789586365 26.447696358668832 50.70544194380389 0 -1 0
5231 36 1 1.1368331612948288 25.974024192561753 49.562654680667706 1 -1 0
9501 63 1 8.576054127334006 24.10684804383826 49.01143561541517 0 0 0
6007 44 1 4.121509718383247 10.731287688595012 52.7444311416879 0 0 0
759 3 1 8.758467352114039 5.339255497061687 38.39822333327779 0 0 1
779 6 1 16.639953139638 12.148133947862002 51.87082280053214 0 0 0
2041 16 1 11.099206802569515 17.28997761504844 41.43450587814433 0 0 0
2042 16 1 11.959866589775553 18.52238477321649 41.663227029332916 0 0 0
2043 17 1 4.645747862468561 22.636988040986658 39.748982596712565 0 0 0
2044 17 1 5.7588030385973 21.675969114478384 40.13572092381263 0 0 0
2045 17 1 6.1679638390606195 21.324792553579776 41.50204663497829 0 0 0
2046 17 1 7.1811468551998425 20.26057355558763 41.5199982893016 0 0 0
2047 17 1 7.692926389866695 20.308024066515237 42.916419788260356 0 0 0
2048 17 1 8.825692239899189 19.36537358780822 43.16450572155651 0 0 0
2049 17 1 9.348809521718325 19.33528367879583 44.586109276057606 0 0 0
2050 17 1 10.300924850705858 20.542520439683177 44.57772690969152 0 0 0
2051 17 1 10.95476783628438 20.837667182718675 45.95225094748151 0 0 0
2052 17 1 11.555642692121546 22.162136540868424 46.36847716507736 0 0 0
317 53 1 18.348436982745955 5.803467282400426 49.10705100009733 0 0 0
2816 37 1 16.92357092749559 5.373248740667662 42.64831609270689 0 0 0
3711 39 1 13.552955716663426 10.659783192811412 38.74857068030854 0 0 0
4095 29 1 16.99860356871153 18.451138364408845 42.6945253055122 0 0 0
1826 16 1 17.96976415556467 23.360849827515583 48.13012248303249 0 0 0
1204 7 1 8.881721716293942 9.357300627617601 38.23815122129048 0 0 1
763 55 1 11.834297739285695 5.269116380025232 41.53091091398151 0 0 0
1223 9 1 15.767307567783778 16.676494387936778 51.071449151796855 0 0 0
1737 13 1 5.019120786223804 18.43779474688491 39.65468004774001 0 0 0
7233 58 1 1.1601840421754552 25.25579853595577 45.95234908961004 0 -1 0
1205 7 1 9.451270338350021 9.604201673889058 39.58646226642883 0 0 1
304 53 1 9.266051320378457 0.7644376545177661 38.32322163041087 0 0 0
2266 17 1 4.58269025398718 22.818315678469517 38.33518636652629 0 0 0
2267 19 1 9.137850562154322 22.625305267235927 40.02265060437347 0 0 0
2268 19 1 10.250045579026159 21.677849139641726 40.311080367583706 0 0 0
2269 19 1 11.02281770991063 21.92921314164035 41.68794386270176 0 0 0
2270 19 1 12.076382290635022 22.991134595629294 41.959861956975914 0 0 0
2271 19 1 12.653338483010153 23.22839044871273 43.31248965062866 0 0 0
2272 19 1 13.637778235225475 24.140895619950577 43.359097026741175 0 0 0
2273 19 1 14.360597810705526 24.07458627297532 44.642214895167655 0 0 0
2274 19 1 15.30058565499031 25.26148608492566 44.723529609458886 0 0 0
2275 19 1 15.734130391733439 25.402824458270416 46.19925604919115 0 0 0
3716 39 1 16.858348583279977 14.201250682144313 42.5390566671701 0 0 0
4314 29 1 13.557455115038245 15.145924263540683 38.81321989279715 0 0 0
1432 9 1 4.795614836808449 14.127139651065455 39.47739500933325 0 0 0
8826 58 1 2.382147782519279 16.496231168876687 46.48306511342618 0 0 0
4094 29 1 16.85089871834751 17.34370518075111 41.81018253278921 0 0 0
1430 9 1 3.028932731942737 14.962030272401908 37.94580628279915 0 0 0
8440 35 1 2.823829363733555 11.845122590589444 46.38682140660008 0 0 0
3033 32 1 12.161426733563001 3.3399402905057918 37.22019309000782 0 0 1
224 2 1 5.530087612889428 26.143958672319695 39.80870290524276 0 -1 0
8051 54 1 1.5360960204497613 7.158364953047455 45.79199128723032 1 0 0
3044 25 1 16.625768421933998 4.1536550475974625 37.09340756703686 0 0 0
15 2 1 16.677448370761855 3.228054443350917 52.3756670522522 0 0 0
7974 33 1 1.197414395379153 8.720286114121574 39.83956366739557 0 0 0
992 8 1 17.79295623113999 14.296901770226123 47.703638809801255 0 0 0
3484 25 1 12.147943380037816 7.667002386747081 36.911910591191834 0 0 0
2037 15 1 7.925458026257389 19.662362676218375 38.118496755033476 0 0 1
1209 8 1 12.520553255673791 9.717879848260942 42.60674548363191 0 0 0
8230 55 1 10.007853020578562 10.922246952726868 49.825901073455455 0 0 0
547 55 1 18.19663500632812 9.977748230159941 47.70808119688432 0 0 0
3262 25 1 13.761948796458205 6.769869621535094 38.544291640933146 0 0 0
8827 58 1 2.8839181222890664 15.067496481412924 46.884418056025055 0 0 0
9505 63 1 11.945766576174549 26.26863271254038 51.831287338126856 0 0 0
7077 48 1 1.490041384174369 22.68504567486463 50.392313702422484 0 0 0
2496 18 1 18.448844256286385 1.941296595219951 44.01796923087325 0 0 0
7235 58 1 2.9559122615042 23.902928814056928 47.34579792117316 0 -1 0
8231 55 1 10.542054291799598 12.19178803686716 50.55986074401827 0 0 0
540 4 1 4.894752808660449 5.143670774416685 39.50043878275547 0 0 1
9494 63 1 3.904490609721946 24.108458808806297 43.17146004134476 0 0 0
1225 9 1 17.34262601384283 15.680097901814444 52.535770559270226 0 0 0
8603 12 1 3.042202011038615 16.401823574425126 41.270927723497145 0 0 0
8831 58 1 5.657996280850955 17.41191122589703 50.525987405575435 0 0 0
8832 58 1 6.775207596232968 17.370386679996248 51.36608409910464 0 0 0
3037 37 1 15.122458826657256 2.9333218460098056 40.20211948426703 0 0 0
1672 13 1 15.090604284531622 20.16122332452633 50.86701673749965 0 0 0
6005 44 1 2.731374983135818 9.755129282833153 51.20151072115625 0 0 0
3486 26 1 18.292925908198708 10.008024760305963 38.41040672019867 0 0 0
2053 17 1 12.286669574003666 22.116009961705632 47.691769164746866 0 0 0
9043 17 1 2.849583361770427 19.90552409331648 42.84781825536533 1 0 0
987 6 1 4.668646394070384 10.024265467589611 39.60886567351093 0 0 0
3264 25 1 15.584326030023776 7.8442871043200935 40.049601500990605 0 0 0
3265 25 1 15.872691336272043 8.841739352490677 41.14839760444884 0 0 0
3266 25 1 17.001288338029678 8.518752329816186 42.00149305001329 0 0 0
2815 37 1 16.79131905837948 4.325368303829078 41.572838815137686 0 0 0
7234 58 1 2.5519893301471863 25.13056789706421 46.52945305020979 0 -1 0
9051 17 1 8.614517951780435 19.747632936169172 49.153118212987415 0 0 0
6692 48 1 2.4657171963237965 18.36840506206025 51.563930770130526 1 0 0
4315 29 1 13.805001825285823 16.494879508778922 39.577967942742546 0 0 0
8444 35 1 5.775618232734438 12.123123068213799 49.48766565745679 0 0 0
2059 17 1 16.917934688572423 25.66084971040275 52.29873747291198 0 0 0
7079 48 1 2.518466924645451 23.92799126461044 51.999476836948844 0 0 0
4087 27 1 17.02235391763831 14.0356140278355 37.99072841366021 0 0 1
3710 39 1 12.26850957529936 10.624744794379332 38.022652786934856 0 0 0
8607 12 1 5.987942746426583 13.969348624063464 44.25310404692261 0 0 0
7456 61 1 3.743620863204594 1.5495765088703461 43.58864218534816 0 0 0
8053 54 1 3.1114246769400933 5.929872519711522 47.417082695031425 1 0 0
3036 37 1 13.745724218475058 2.894809240277524 39.54317909565262 0 0 0
456 52 1 6.078060905132467 4.023507138652674 41.43193169834802 0 0 0
7988 33 1 11.105734767439653 7.218642589548967 51.057719691097475 0 0 0
8057 54 1 5.902458427101272 8.848139917050311 50.69299593327274 0 0 0
3267 25 1 17.073143876520184 9.706987221459308 43.025599859486775 0 0 0
1675 13 1 17.297190484869212 19.776328385014 52.60073051574369 0 0 0
760 55 1 9.54914707407705 5.287217667568074 39.76540238225838 0 0 0
5233 36 1 2.6324490626529737 0.5125468480980849 51.174444816476736 0 0 0
985 6 1 3.4526429767719424 10.945009799385126 37.59139473444144 0 0 0
4761 31 1 13.75128459743162 21.2411895033029 39.5965955245756 0 0 0
4762 31 1 15.166512630700803 20.95066678909658 40.11936537728846 0 0 0
7691 6 1 6.046130213905448 4.176388367277256 50.76244915629075 0 0 0
6310 64 1 1.4638659785038932 14.035027112652152 50.654318692016375 1 0 0
221 2 1 3.6835238650816295 1.8715669235245358 37.50517346992989 0 0 0
7241 58 1 7.458623809195811 0.5168502994471217 52.518777770057426 0 0 0
538 4 1 3.343678500381552 6.250073967672546 37.84351699436068 0 0 1
4763 31 1 15.547191403729073 21.956550528565757 41.24500430456199 0 0 0
8447 35 1 7.1555652268077905 14.201099195807245 52.46583881907331 0 0 0
9283 61 1 6.890705939020488 22.85454142020394 52.35428146916283 0 0 0
7689 6 1 4.387101148409538 2.8124295749329287 49.271834384077714 0 0 0
8615 12 1 11.89804829997076 16.899800635133733 50.905998843133794 0 0 0
8606 12 1 4.47705251363035 14.128152552077932 43.90770026788994 0 0 0
4096 29 1 18.42301434273731 18.528866379191932 43.087793455779284 0 0 0
2494 18 1 16.931886180786694 0.9291293586415539 42.41070589964168 0 0 0
7466 61 1 10.891924029871207 3.6295984464224973 51.34528805839381 0 0 0
541 55 1 13.600353882830344 6.307645015141688 42.91990606300435 0 0 0
2491 18 1 15.523584376814505 25.070183263204367 40.21711068848397 0 -1 0
3718 39 1 18.35619146378383 15.152838830087653 44.36271721013701 0 0 0
3717 39 1 18.046925586663612 14.146472668698154 43.230005581000384 0 0 0
8445 35 1 5.915937573734669 13.05402236334539 50.71875965546342 0 0 0
5622 42 1 2.939557131308894 6.456859695033238 51.91987855441986 0 0 0
8610 12 1 7.526938571310397 14.179011375440888 47.321570976395265 0 0 0
2818 37 1 18.546047547958004 6.582912434058117 44.18296088531238 0 0 0
8442 35 1 4.29184355691529 10.726882924990177 47.96719043190182 0 0 0
8830 58 1 5.682229591746073 16.185734074014782 49.58661216788206 0 0 0
8612 12 1 8.858590891936037 15.199962427681584 49.063666397819 0 0 0
1208 8 1 11.862227118790702 9.626707274236736 41.3120505512705 0 0 0
223 2 1 4.91073046665921 0.6624927097262814 39.22491524637573 0 0 0
7240 58 1 7.211204274590063 26.368258254927955 51.19689976910781 0 -1 0
9497 63 1 5.925553402517218 21.763363301536735 45.330866438366925 0 0 0
8232 55 1 11.845789654165898 12.08542983578338 51.28705752954005 0 0 0
758 3 1 7.725894113686783 6.42492604149848 37.965954783835734 0 0 1
390 52 1 16.157774452003654 7.717264975184108 50.846573225312376 0 0 0
8055 54 1 4.44167071270723 7.472475805311467 48.76169381579191 1 0 0
3714 39 1 15.271883920198512 12.945366994130964 40.95751357351395 0 0 0
3035 37 1 13.760542384197915 1.9058150625381487 38.49357359611463 0 0 0
9276 61 1 2.6289474533598867 20.718282368405806 46.123390886958006 0 0 0
2265 17 1 3.570608914788065 23.839574346939415 37.9822317214133 0 0 0
4759 10 1 12.066460945679772 20.089322097323215 38.10519043835195 0 0 1
7976 33 1 2.636745134639134 7.512888224960014 41.548185885016316 0 0 0
2057 17 1 15.617362029549344 24.557605018334968 50.632610982885424 0 0 0
1210 8 1 13.409101309018332 10.82476577350434 42.78065792040483 0 0 0
8609 12 1 7.499562993491294 13.219148926982703 46.21243303150261 0 0 0
7987 33 1 9.997629561833593 7.300508051055783 50.065368651478245 0 0 0
8438 35 1 1.4455693387220274 13.022240333635034 44.75559439309738 1 0 0
6691 48 1 1.1588565986645187 18.402074760103567 50.803067625347765 1 0 0
7684 6 1 1.1134801039937277 3.9103406437780777 44.92255078585847 0 0 0
8605 12 1 4.24191445790528 15.359170077021673 43.136349422206315 0 0 0
7693 6 1 7.428611404577262 5.410593354589143 52.31729954977395 0 0 0
3713 39 1 15.111789854678541 11.735515662843037 40.083540053244484 0 0 0
392 52 1 17.359777423386372 6.455609508449198 52.63719248054025 0 0 0
1206 7 1 10.139148742527867 8.36161507713384 40.26212586253944 0 0 1
9040 14 1 1.4405695587580722 21.570233670619732 39.6540020009681 1 0 1
9504 63 1 11.695540443506935 25.516870653523657 50.516951872946066 0 0 0
1207 7 1 11.043796306534482 8.482301784648643 41.4318819207284 0 0 1
8446 35 1 7.205652124470757 13.207370996028052 51.38000769287169 0 0 0
9503 63 1 10.220546600219793 25.222092017119888 50.317590931149915 0 0 0
3263 25 1 14.134177085351483 7.621056541903154 39.71641184335781 0 0 0
8824 58 1 0.9859007499184774 17.41538869605725 44.65297308189299 1 0 0
9500 63 1 8.687336461807767 23.007543391674655 48.01981457540229 0 0 0
9044 17 1 4.1050621143183585 19.04451044358492 43.08262488215304 1 0 0
8828 58 1 4.154922343555135 15.149084056563154 47.75795013976885 0 0 0
8616 12 1 11.935648143470539 17.77720008473838 52.17308252875399 0 0 0
7989 33 1 11.493609432800397 8.562188464736309 51.62308064660646 0 0 0
548 55 1 18.627388030291353 10.213608445379858 49.13869243715456 0 0 0
9490 63 1 1.3389288369090728 26.07435249274436 39.60759880880626 1 0 0
6003 44 1 1.4943027673530875 8.424084230080785 49.69648496495513 0 0 0
4536 42 1 18.484744616718274 18.428764255536873 38.64441162422565 0 0 1
9499 63 1 7.296774873445692 22.7994290116626 47.33613751344555 0 0 0
8602 12 1 1.6269754773509366 16.230896626096506 40.68125602960352 0 0 0
2655 19 1 12.296858344997002 25.416920401156776 37.30653197276154 0 -1 1
777 6 1 14.91987893540348 10.757788748890981 50.47999914934285 0 0 0
9492 63 1 2.6850010878672665 25.005041644183738 41.401116626552685 1 0 0
7692 6 1 7.454015926824753 4.2314115621606465 51.38330591792097 0 0 0
2040 16 1 10.505253206246119 17.476252550675177 39.94694909456437 0 0 0
1224 9 1 16.215949244486236 16.61204678880762 52.536643248681706 0 0 0
7457 61 1 4.808230785818277 0.5613039202942236 43.98827823129007 0 0 0
7458 61 1 5.107468515005238 0.5362779566880318 45.42266427644465 0 0 0
7459 61 1 6.34226212406023 26.275710886337624 45.619282488309906 0 -1 0
7460 61 1 6.8752324775561355 26.366956626959823 46.90345755843534 0 -1 0
7461 61 1 7.99731172080193 0.6736019602788609 46.96824873623924 0 0 0
7462 61 1 7.985607135320899 0.7943595407114368 48.41499181864507 0 0 0
7463 61 1 9.360597740471407 1.310871817008469 48.705590811360295 0 0 0
7464 61 1 9.405547766256666 1.9943059528156437 50.063449158298084 0 0 0
7465 61 1 10.647460737082564 2.8340481989948283 50.10333730576076 0 0 0
5232 36 1 1.2193283101119687 0.315183015328699 50.7042203051501 1 0 0
8829 58 1 4.4662486326168604 16.294703192963343 48.710470786520816 0 0 0
4093 29 1 15.554175599872233 17.543237324733322 41.08149803447744 0 0 0
9042 17 1 2.5988075714940746 20.048146677268836 41.35977178328759 1 0 0
8056 54 1 5.622553715894226 7.543140356783412 49.897790484794974 1 0 0
3712 39 1 14.081818347794727 11.989506121481691 39.07560072106718 0 0 0
7975 33 1 1.2785975562374658 7.564103348222859 40.784775786825584 0 0 0
8448 35 1 8.625196752420065 14.252126890479383 52.72511857217118 0 0 0
8613 12 1 10.252402823875885 15.443525787881356 49.46734242276261 0 0 0
9046 17 1 5.773624913224516 18.13606916077781 44.63062552520257 0 0 0
9278 61 1 4.123632186191987 19.31243363363241 47.94205909031598 0 0 0
391 52 1 16.753448322775977 7.731030122386344 52.170103072466816 0 0 0
7687 6 1 2.932176013842435 1.6893029239325763 47.495953895242465 0 0 0
7688 6 1 4.232544184848454 1.7658780541575045 48.270096163432335 0 0 0
1446 12 1 17.948625696708707 18.820000390326033 49.313305781628834 0 0 0
8059 54 1 7.507461098052399 9.8922619734048 51.96170263687043 0 0 0
315 53 1 16.74320930372717 4.404140090284118 47.50915370763987 0 0 0
6313 64 1 4.2123912414914 15.461040024267092 52.681930716148486 1 0 0
1673 13 1 16.074918430172232 21.218527577425185 51.27594012023571 0 0 0
9053 17 1 10.20897652645222 20.983725986758685 50.770472615225735 0 0 0
7455 61 1 3.2244766312616266 1.4580180156310183 42.343993246706745 0 0 0
4760 10 1 13.175902627077777 19.96984413090845 39.127321622228564 0 0 1
3709 26 1 16.950673252725338 10.006750468725535 37.74755273381371 0 0 0
7977 33 1 2.818942648403708 6.287258682847456 42.439171666679684 0 0 0
7978 33 1 4.178430317849333 6.342908210728709 43.07202710786731 0 0 0
7979 33 1 4.208521196512827 5.162315931497236 44.02735238900198 0 0 0
7980 33 1 5.552739772922385 4.964730957250984 44.69372930659606 0 0 0