LAMMPS data file via write_data, version 29 Oct 2020, timestep = 32000000

10752 atoms
2 atom types
10752 bonds
3 bond types
10752 angles
3 angle types
10752 dihedrals
3 dihedral types

-1.4019591925125496e-01 3.1008115919238300e+01 xlo xhi
-1.2113307625790526e-01 2.6791853076229280e+01 ylo yhi
 3.6290626454262608e+01 2.4670873354508632e+02 zlo zhi

Masses

1 14
2 15

Pair Coeffs # lj/cut/omp

1 0.0914 3.95
2 0.1947 3.75

Bond Coeffs # harmonic/omp

1 449.5 1.53
2 449.5 1.53
3 449.5 1.53

Angle Coeffs # harmonic/omp

1 62.0967 114
2 62.0967 114
3 62.0967 114

Dihedral Coeffs # opls/omp

1 1.411 -0.271 3.145 0
2 1.411 -0.271 3.145 0
3 1.411 -0.271 3.145 0

Atoms # molecular

1            1            1      8.07645      15.2891      36.5877
2            1            1      9.40353      15.8059      36.7063
3            1            1       9.2157      16.6148      37.9508
4            1            1      7.78738      17.0913      38.0699
5            1            1      7.71475      18.3633      38.9515
6            1            1      8.53787      18.3461      40.2098
7            1            1      7.95558      19.4553      41.1183
8            1            1      8.75044      19.6688      42.3094
9            1            1      8.43558      20.9785      42.9185
10            1            1      9.36255      21.1393      44.1014
11            1            1       8.8624      22.1281      45.1526
12            1            1      7.85664      21.4764      46.0578
13            1            1      7.69478      22.1812      47.3526
14            1            1      6.78236      21.4436      48.3845
15            1            1      6.07834      22.3745       49.423
16            1            1      5.34024      21.6324      50.3652
17            1            1      4.94161      22.6079      51.4808
18            1            1      5.99782      23.5715       52.099
19            1            1      5.29132      24.1224      53.3635
20            1            1      3.92575      24.7875      53.2742
21            1            1      3.88198      26.0103      54.1882
22            1            1      4.62725      25.6821      55.4457
23            1            1      4.34146   -0.0397581      56.4134
24            1            1      5.16571      26.7016      57.7216
25            1            1      5.02947      1.05793      58.5235
26            1            1      6.04731      1.11231      59.6465
27            1            1      5.99445      2.31729      60.4843
28            1            1      7.16257      2.33733      61.3414
29            1            1      6.97138      3.20792      62.5697
30            1            1      8.20057      3.32715      63.4588
31            1            1      7.98321      4.24511      64.5548
32            1            1      9.14417      4.06126      65.4793
33            1            1      9.06211      5.06368       66.627
34            1            1      7.83898      5.15245      67.3546
35            1            1      7.58355      6.39908      68.2092
36            1            1      6.34042      6.27811      69.1319
37            1            1      6.67266      7.13151      70.2465
38            1            1      5.47254      7.37121      71.1281
39            1            1      5.77494      8.55478      71.9829
40            1            1      4.58851       8.6917      72.8568
41            1            1      4.83949      9.72317      73.9095
42            1            1      3.73434      10.0782      74.8801
43            1            1      3.67848      8.95652      75.8836
44            1            1      2.51874      9.11061      76.8381
45            1            1       2.4059      7.97503      77.8422
46            1            1      1.21874      8.19514      78.7879
47            1            1      1.01396      7.08849       79.786
48            1            1    -0.132638      7.13393      80.7685
49            1            1      30.9229      5.84131      81.6003
50            1            1      1.27411      5.35869       81.754
51            1            1      1.10161      4.28837      82.8506
52            1            1    -0.089339      4.72958      83.7467
53            1            1      30.8739      3.67608      84.7784
54            1            1      29.8689       3.7502      85.9147
55            1            1      29.7691      2.55851      86.8344
56            1            1      28.6642      2.33041      87.7418
57            1            1      28.8634      3.31171      88.8785
58            1            1      27.7892      2.93477      89.9083
59            1            1      27.6107      4.09387      90.9076
60            1            1      26.4688      3.82952      91.8891
61            1            1      26.3992      5.10826      92.7527
62            1            1      27.8808      5.43107       92.728
63            1            1      28.1452      6.19351      93.9696
64            1            1      26.8853      6.23077      94.6644
65            1            1      26.9384      6.25384      96.1057
66            1            1      28.0315      7.22806      96.5885
67            1            1      27.9468      7.20916      98.0796
68            1            1      29.2566      7.53914       98.792
69             1             1       28.9749       7.92685       100.193
70             1             1       30.2945       8.31424       100.969
71             1             1       29.8125       8.74691       102.289
72             1             1      -0.26222       9.22578       103.199
73             1             1      0.188405       8.15396       104.118
74             1             1      0.713473       8.49983       105.505
75             1             1       1.04463       7.35974       106.428
76             1             1       1.77245        7.8002        107.65
77             1             1       2.21559       6.73345       108.585
78             1             1       1.12873       6.20096       109.391
79             1             1       1.67163       5.38146       110.473
80             1             1      0.531987       5.16652       111.514
81             1             1      0.763959       4.21419        112.66
82             1             1       30.4743       4.00958       113.335
83             1             1       30.7426       3.18022       114.643
84             1             1        29.551       2.61509       115.415
85             1             1        30.119       2.20982        116.79
86             1             1       28.9601       1.92438       117.662
87             1             1        29.298       0.81605       118.689
88             1             1       28.1113      0.703236       119.645
89             1             1       28.1679       26.3448       120.463
90             1             1       27.5261       26.7263       121.724
91             1             1       27.2135       25.4057       122.524
92             1             1       26.7316       25.6364       123.887
93             1             1       25.7245     -0.169306       123.791
94             1             1       24.7155       26.4117       124.824
95             1             1       25.3662     0.0829534       126.079
96             1             1       25.2841        1.6181       126.138
97             1             1       26.0303       1.92935       127.367
98             1             1       26.6419      0.574398       127.775
99             1             1        27.796      0.962675       128.699
100             1             1       27.2942       1.85355        129.75
101             1             1       28.4103       2.29582       130.791
102             1             1       29.1405       1.19214       131.386
103             1             1       30.0438       1.72895       132.425
104             1             1       29.7085       2.99228       133.144
105             1             1        30.675        3.3469       134.234
106             1             1       30.0745       4.14121       135.366
107             1             1    -0.0738179        4.4999       136.423
108             1             1       30.4012       5.34085       137.436
109             1             1     -0.164054       5.08358       138.777
110             1             1       1.32388        5.3413       138.642
111             1             1       2.13545        5.1326       139.854
112             1             1       1.72141       3.95864       140.716
113             1             1       2.79671       3.67734       141.764
114             1             1       3.19549       4.88326       142.564
115             1             1       4.34567       4.58155       143.468
116             1             1       3.94063       3.43951       144.363
117             1             1        2.8445       3.65016       145.405
118             1             1       2.60772        2.4476       146.262
119             1             1       1.78489        2.8059        147.46
120             1             1       2.64963       3.81658       148.087
121             1             1       1.67015       4.72638       148.793
122             1             1       2.23148        5.4932       149.936
123             1             1       2.66633       4.54567       151.087
124             1             1       3.82276       5.14863       151.763
125             1             1       4.14472       4.20233       152.947
126             1             1       5.07806       4.73113        153.85
127             1             1       5.47461       3.72276       154.935
128             1             1       4.38766       3.21421        155.82
129             1             1       4.82539       2.20175       156.814
130             1             1       4.07824       2.11352       158.131
131             1             1       4.25136      0.743304       158.764
132             1             1        3.3017      0.727795       159.941
133             1             1       3.40588        26.599       161.013
134             1             1       2.31499       26.6712         162.1
135             1             1       2.32523       1.05621       162.775
136             1             1       1.41309      0.996846       163.933
137             1             1       1.52021       2.39556       164.647
138             1             1      0.889962       2.05935       165.955
139             1             1       0.30638       3.28767       166.634
140             1             1     -0.114697       3.06285        167.99
141             1             1       30.0541       1.86997       168.029
142             1             1       29.4677       1.57541       169.388
143             1             1       29.2472       2.78963       170.221
144             1             1       28.5318       2.27975       171.459
145             1             1       27.8214       3.43236       171.932
146             1             1       26.8338       3.03906       172.947
147             1             1       27.3028       1.77715       173.755
148             1             1       26.3819       1.45904       174.995
149             1             1       25.9373       2.68668        175.59
150             1             1       25.2963       2.41189       176.949
151             1             1       24.8873       1.03422       176.704
152             1             1       24.0426      0.739803       177.934
153             1             1       24.7165       1.03948       179.237
154             1             1       23.6808       1.48542       180.233
155             1             1       24.1883        1.7731       181.588
156             1             1       23.1235       2.53593       182.414
157             1             1       23.7572       2.89955       183.743
158             1             1       24.4611       1.63623       184.306
159             1             1       25.3737       1.91197       185.457
160             1             1       25.8226      0.555824       186.053
161             1             1       26.7887      0.685304       187.216
162             1             1       27.3575       26.2446       187.608
163             1             1       27.8929       26.3993       188.939
164             1             1       28.4763        25.025       189.442
165             1             1       29.1004       25.2108       190.747
166             1             1       28.5211       26.3409        191.43
167             1             1       29.5522    -0.0200024       192.432
168             1             1       28.7747      0.773384       193.414
169             1             1       29.6366       1.29656       194.553
170             1             1       28.8736       2.09456       195.544
171             1             1       27.6879       1.19877       195.878
172             1             1       27.5122       1.40871       197.306
173             1             1       28.7398      0.690684       197.889
174             1             1       29.0358      0.834006       199.324
175             1             1       30.0031      -0.17986       199.895
176             1             1       30.3603      0.256475         201.3
177             1             1       30.8136       25.8636       201.936
178             1             1      0.364739       25.9182       203.197
179             1             1      0.535854       24.5868       203.784
180             1             1       1.33136       24.6565       205.113
181             1             1       1.78094       23.3218       205.565
182             1             1       2.52616       23.4684       206.886
183             1             1       2.78173       22.3048       207.785
184             1             1        3.5555       22.6906       208.992
185             1             1       2.98375       23.8976       209.693
186             1             1        4.0874       24.2562       210.638
187             1             1       3.63141       25.1679       211.793
188             1             1       4.80271       25.5751       212.714
189             1             1       4.34389       26.4993       213.782
190             1             1       5.49236       26.6714       214.795
191             1             1       5.39422       0.92124       215.805
192             1             1       6.65468       1.23559        216.66
193             1             1       6.24555       2.22496        217.66
194             1             1       7.18024       2.85296       218.595
195             1             1       7.78527       1.85914       219.507
196             1             1       8.48653       2.61634        220.65
197             1             1       8.88975       1.74672       221.814
198             1             1       7.86435       0.68864       221.914
199             1             1       8.22595       26.6003       223.006
200             1             1       9.25668      0.278895        223.89
201             1             1       9.84881       26.1474       224.787
202             1             1       8.81481       25.6773       225.771
203             1             1       9.36217       24.5774       226.674
204             1             1       8.42961       24.1149        227.68
205             1             1       8.77825       22.8539        228.52
206             1             1       7.74904       22.4512       229.574
207             1             1       7.29747         23.76       230.254
208             1             1       6.56384       23.2313       231.441
209             1             1       7.53452       22.0807       231.753
210             1             1       6.77168       21.1326       232.626
211             1             1       6.17296       21.6953       233.915
212             1             1       5.94837       20.4589       234.754
213             1             1       5.17602       20.7452       235.937
214             1             1        5.1871       19.5028        236.79
215             1             1       4.37717        19.478       238.065
216             1             1       4.78714        18.374        238.95
217             1             1       6.10315       18.4782       239.583
218             1             1       6.31814       17.2406        240.46
219             1             1       5.01506       17.0134       241.206
220             1             1       5.17543       15.7652       242.035
221             1             1       6.35537       16.1958       242.752
222             1             1       6.50295       15.0905       243.783
223             1             1       7.59749       15.5061        244.78
224             1             1       7.74035       14.4723       245.823
225             2             1       10.2461       16.9311       244.049
226             2             1         11.21       17.9125       244.727
227             2             1       11.9819       17.1042        245.67
228             2             1       12.4897        17.921       36.3993
229             2             1       11.5923       18.9999       36.6605
230             2             1       11.6802       19.5664       38.0316
231             2             1        13.144       19.5587       38.5504
232             2             1       13.1116       20.7393       39.5016
233             2             1       11.7071       20.7183       39.9753
234             2             1       11.4899       21.7162       41.0529
235             2             1       12.6124       21.9907       41.9583
236             2             1        12.332       22.8012       43.1717
237             2             1       13.5497       23.4812       43.7494
238             2             1       13.2212       24.2996       44.9765
239             2             1       12.1573       23.5542       45.7716
240             2             1       11.6714       24.3972       46.9283
241             2             1       10.6757       23.7307       47.9006
242             2             1       9.99452       24.6303       48.9768
243             2             1       8.96903       24.0222       49.9346
244             2             1       8.62974       24.9173       51.0859
245             2             1       9.75488       25.8828        51.561
246             2             1       9.32162       26.3312       52.9946
247             2             1       7.82243       26.6562       53.1522
248             2             1       7.43496      0.120913       54.5877
249             2             1       8.51525       1.05345       55.0033
250             2             1       8.20998       1.65215        56.336
251             2             1       9.44827       2.19227       57.0008
252             2             1       8.97483       3.01832       58.1895
253             2             1        10.184       3.46132       59.0485
254             2             1       9.87722       4.22694       60.3359
255             2             1       11.1709       4.35319       61.1643
256             2             1       11.0041       5.10447        62.448
257             2             1         12.23       5.60706       63.2034
258             2             1       11.8105       6.10763       64.5952
259             2             1       12.6974       6.99091       65.3533
260             2             1       12.0777       7.44511        66.662
261             2             1       13.1402       7.99659        67.574
262             2             1       12.4146       8.59603       68.8073
263             2             1       10.9158       8.36623          68.5
264             2             1       10.0074       8.39076       69.7356
265             2             1       10.1701       9.68118       70.5628
266             2             1        9.2338       9.90505       71.7447
267             2             1       9.67847       10.8707       72.7823
268             2             1       8.37761       10.8573       73.5596
269             2             1       8.22504       12.1636         74.24
270             2             1       7.06881       12.1016       75.2011
271             2             1       7.37734       11.1674        76.411
272             2             1       6.29513       11.1052        77.394
273             2             1       6.55364       10.3203       78.6865
274             2             1       5.17137       9.88911       79.0327
275             2             1       5.10674        9.0509       80.4147
276             2             1       3.71535       8.90595       81.0145
277             2             1       3.64652       7.93578       82.1777
278             2             1       5.04434       7.75558       82.6705
279             2             1       4.99738       6.64134       83.7373
280             2             1       3.64074        6.8595       84.4365
281             2             1        3.3518       5.72931         85.39
282             2             1       2.16881       5.88437       86.3283
283             2             1       2.03981       4.59135       87.2372
284             2             1      0.887063       4.61649       88.2901
285             2             1      0.891666        5.7547       89.3292
286             2             1       31.0456       5.36251       90.4183
287             2             1       30.7692       6.42579       91.4923
288             2             1      0.838512       7.42017       91.6463
289             2             1      0.925572       7.97958       93.0047
290             2             1         30.72       8.66999       93.2019
291             2             1       30.6496       9.28185       94.5663
292             2             1    -0.0610238       8.28987       95.6005
293             2             1      0.870011       8.63324       96.7049
294             2             1      0.422551       9.60702       97.7251
295             2             1       1.56966       9.75923       98.7213
296             2             1       1.34713       10.8328       99.7915
297             2             1       2.41704       10.9086       100.923
298             2             1       2.30265       11.8084       102.112
299             2             1       3.34361       11.6494        103.22
300             2             1       2.86591       10.5632       104.112
301             2             1        3.3726       10.4926       105.526
302             2             1       4.99294        10.571       105.424
303             2             1       5.62607       10.4745       106.784
304             2             1       4.87244        9.5887       107.719
305             2             1       5.61904       8.93999       108.841
306             2             1       4.72658       8.19826        109.82
307             2             1        5.4184       7.20936       110.765
308             2             1       4.47105       6.58162       111.737
309             2             1       3.86147       7.84507       112.326
310             2             1       3.05945        7.4092       113.596
311             2             1       3.38795       6.00299       114.126
312             2             1       2.28411       5.54032       115.168
313             2             1       2.54419       5.10192       116.562
314             2             1       1.30414       4.48799       117.254
315             2             1       1.78306       3.90552       118.604
316             2             1      0.668511       3.41446       119.512
317             2             1       0.99884       2.46152       120.669
318             2             1       30.8835       2.24016       121.506
319             2             1     0.0245881       1.05091       122.357
320             2             1       30.2566      0.811877        123.51
321             2             1       30.2029       2.08888       124.257
322             2             1       29.1342       1.82286       125.215
323             2             1       28.8449       3.09929       126.098
324             2             1       29.9678       3.68477       126.844
325             2             1       30.6525       2.50609       127.571
326             2             1       0.47349       2.90117        128.55
327             2             1       30.9867       4.25192       129.027
328             2             1      0.731037       4.66201       130.216
329             2             1       1.32554       3.55843       131.001
330             2             1       2.32266        3.9607       132.023
331             2             1        2.0286       5.36768       132.535
332             2             1       3.02843       5.69682        133.68
333             2             1       2.75619        4.6104       134.724
334             2             1       3.45307        5.0661       135.978
335             2             1        4.8418       5.62725       135.732
336             2             1       5.36194       5.99832       137.148
337             2             1       4.40091        7.0332       137.563
338             2             1       4.94533       7.62712       138.806
339             2             1       5.55576       6.43948       139.495
340             2             1       6.10372        6.5117       140.885
341             2             1       6.60513       7.92684       141.159
342             2             1       7.71106       7.81676       142.161
343             2             1        7.3738       6.75154       143.111
344             2             1       8.40614        6.5476       144.216
345             2             1       8.24419        5.6738       145.482
346             2             1       6.72931       5.31156       145.521
347             2             1       6.27456       4.93294       146.958
348             2             1       6.63694        5.7994        148.14
349             2             1       5.45146         6.312       148.847
350             2             1       5.88065       7.00694       150.024
351             2             1       6.84406       6.25536       150.868
352             2             1       6.96967       6.86007       152.185
353             2             1       8.16398       6.23584        152.94
354             2             1       8.79557       7.08055       154.074
355             2             1       9.16068       6.02682        155.03
356             2             1        8.0176       5.73311       156.045
357             2             1       8.28748       4.65063       157.023
358             2             1       7.30755       4.67262       158.163
359             2             1       7.45818       3.44989        159.03
360             2             1       6.55001       3.29655       160.231
361             2             1       6.85845       2.14562       161.152
362             2             1       5.91103       2.11476       162.382
363             2             1       5.86639       3.51525       163.082
364             2             1       4.99288       3.36526       164.278
365             2             1       4.93071       4.68289       165.168
366             2             1       3.78909       4.49693       166.064
367             2             1       3.48705       5.80748       166.822
368             2             1       2.68019        5.5252       168.196
369             2             1       3.48887       4.36216       168.947
370             2             1       2.64107       3.97608       170.221
371             2             1       1.61226       5.08127       170.351
372             2             1       1.01691       5.22762       171.681
373             2             1      0.826445       3.87587       172.165
374             2             1      0.241018       3.78414       173.571
375             2             1        30.334       4.85153       173.867
376             2             1       29.3988       4.60204       174.977
377             2             1       29.9529       3.35486       175.701
378             2             1       29.2405       3.23296        176.99
379             2             1       28.5132       4.58627       177.177
380             2             1       28.2827       4.60043        178.69
381             2             1       27.5179       3.49472       179.254
382             2             1       27.4189       3.42199       180.764
383             2             1       26.9996       4.70628         181.4
384             2             1       26.8213       4.46607       182.815
385             2             1        27.717       3.28596       183.022
386             2             1       28.2409       3.16598       184.489
387             2             1       29.3294       2.14428       184.896
388             2             1       29.8072       1.99255       186.304
389             2             1       30.3634      0.697027       186.748
390             2             1   -0.00282487      0.984116       188.032
391             2             1      0.512819       26.6051        188.74
392             2             1       1.42167      0.170511       189.851
393             2             1      0.854582       1.35494       190.573
394             2             1       1.81608       1.90046       191.632
395             2             1       1.11258       2.41722       192.875
396             2             1       2.34184        3.1992       193.438
397             2             1       1.71732       4.08735       194.502
398             2             1       1.53689       3.13266       195.736
399             2             1      0.847793       3.80882       196.856
400             2             1      0.847449       3.09006       198.125
401             2             1       2.25154       2.75622       198.628
402             2             1       2.03378       1.88043       199.818